V -t * -v 1.0a5 -a 0
A -t * -n 1 -p 0 -o 0x7fffffff -c 30 -a 1
A -t * -h 1 -m 1073741823 -s 0
n -t * -a 4 -s 4 -S UP -v circle -c black -i black
n -t * -a 0 -s 0 -S UP -v circle -c black -i black
n -t * -a 5 -s 5 -S UP -v circle -c black -i black
n -t * -a 1 -s 1 -S UP -v circle -c black -i black
n -t * -a 2 -s 2 -S UP -v circle -c black -i black
n -t * -a 3 -s 3 -S UP -v circle -c black -i black
l -t * -s 0 -d 2 -S UP -r 5000000 -D 0.002 -c black
l -t * -s 1 -d 2 -S UP -r 5000000 -D 0.002 -c black
l -t * -s 2 -d 3 -S UP -r 400000 -D 0.01 -c black
l -t * -s 3 -d 4 -S UP -r 1500000 -D 0.002 -c black
l -t * -s 3 -d 5 -S UP -r 1500000 -D 0.002 -c black
+ -t 1.2 -s 0 -d 2 -p tcp -e 40 -c 0 -i 0 -a 0 -x {0.0 5.0 0 ------- null}
- -t 1.2 -s 0 -d 2 -p tcp -e 40 -c 0 -i 0 -a 0 -x {0.0 5.0 0 ------- null}
h -t 1.2 -s 0 -d 2 -p tcp -e 40 -c 0 -i 0 -a 0 -x {0.0 5.0 -1 ------- null}
r -t 1.202064 -s 0 -d 2 -p tcp -e 40 -c 0 -i 0 -a 0 -x {0.0 5.0 0 ------- null}
+ -t 1.202064 -s 2 -d 3 -p tcp -e 40 -c 0 -i 0 -a 0 -x {0.0 5.0 0 ------- null}
- -t 1.202064 -s 2 -d 3 -p tcp -e 40 -c 0 -i 0 -a 0 -x {0.0 5.0 0 ------- null}
h -t 1.202064 -s 2 -d 3 -p tcp -e 40 -c 0 -i 0 -a 0 -x {0.0 5.0 -1 ------- null}
r -t 1.212864 -s 2 -d 3 -p tcp -e 40 -c 0 -i 0 -a 0 -x {0.0 5.0 0 ------- null}
+ -t 1.212864 -s 3 -d 5 -p tcp -e 40 -c 0 -i 0 -a 0 -x {0.0 5.0 0 ------- null}
- -t 1.212864 -s 3 -d 5 -p tcp -e 40 -c 0 -i 0 -a 0 -x {0.0 5.0 0 ------- null}
h -t 1.212864 -s 3 -d 5 -p tcp -e 40 -c 0 -i 0 -a 0 -x {0.0 5.0 -1 ------- null}
r -t 1.21507733333333 -s 3 -d 5 -p tcp -e 40 -c 0 -i 0 -a 0 -x {0.0 5.0 0 ------- null}
+ -t 1.21507733333333 -s 5 -d 3 -p ack -e 40 -c 0 -i 1 -a 0 -x {5.0 0.0 0 ------- null}
- -t 1.21507733333333 -s 5 -d 3 -p ack -e 40 -c 0 -i 1 -a 0 -x {5.0 0.0 0 ------- null}
h -t 1.21507733333333 -s 5 -d 3 -p ack -e 40 -c 0 -i 1 -a 0 -x {5.0 0.0 -1 ------- null}
r -t 1.21729066666667 -s 5 -d 3 -p ack -e 40 -c 0 -i 1 -a 0 -x {5.0 0.0 0 ------- null}
+ -t 1.21729066666667 -s 3 -d 2 -p ack -e 40 -c 0 -i 1 -a 0 -x {5.0 0.0 0 ------- null}
- -t 1.21729066666667 -s 3 -d 2 -p ack -e 40 -c 0 -i 1 -a 0 -x {5.0 0.0 0 ------- null}
h -t 1.21729066666667 -s 3 -d 2 -p ack -e 40 -c 0 -i 1 -a 0 -x {5.0 0.0 -1 ------- null}
r -t 1.22809066666667 -s 3 -d 2 -p ack -e 40 -c 0 -i 1 -a 0 -x {5.0 0.0 0 ------- null}
+ -t 1.22809066666667 -s 2 -d 0 -p ack -e 40 -c 0 -i 1 -a 0 -x {5.0 0.0 0 ------- null}
- -t 1.22809066666667 -s 2 -d 0 -p ack -e 40 -c 0 -i 1 -a 0 -x {5.0 0.0 0 ------- null}
h -t 1.22809066666667 -s 2 -d 0 -p ack -e 40 -c 0 -i 1 -a 0 -x {5.0 0.0 -1 ------- null}
r -t 1.23015466666667 -s 2 -d 0 -p ack -e 40 -c 0 -i 1 -a 0 -x {5.0 0.0 0 ------- null}
+ -t 1.23015466666667 -s 0 -d 2 -p tcp -e 1040 -c 0 -i 2 -a 0 -x {0.0 5.0 1 ------- null}
- -t 1.23015466666667 -s 0 -d 2 -p tcp -e 1040 -c 0 -i 2 -a 0 -x {0.0 5.0 1 ------- null}
h -t 1.23015466666667 -s 0 -d 2 -p tcp -e 1040 -c 0 -i 2 -a 0 -x {0.0 5.0 -1 ------- null}
+ -t 1.23015466666667 -s 0 -d 2 -p tcp -e 1040 -c 0 -i 3 -a 0 -x {0.0 5.0 2 ------- null}
- -t 1.23181866666667 -s 0 -d 2 -p tcp -e 1040 -c 0 -i 3 -a 0 -x {0.0 5.0 2 ------- null}
h -t 1.23181866666667 -s 0 -d 2 -p tcp -e 1040 -c 0 -i 3 -a 0 -x {0.0 5.0 -1 ------- null}
r -t 1.23381866666667 -s 0 -d 2 -p tcp -e 1040 -c 0 -i 2 -a 0 -x {0.0 5.0 1 ------- null}
+ -t 1.23381866666667 -s 2 -d 3 -p tcp -e 1040 -c 0 -i 2 -a 0 -x {0.0 5.0 1 ------- null}
- -t 1.23381866666667 -s 2 -d 3 -p tcp -e 1040 -c 0 -i 2 -a 0 -x {0.0 5.0 1 ------- null}
h -t 1.23381866666667 -s 2 -d 3 -p tcp -e 1040 -c 0 -i 2 -a 0 -x {0.0 5.0 -1 ------- null}
r -t 1.23548266666667 -s 0 -d 2 -p tcp -e 1040 -c 0 -i 3 -a 0 -x {0.0 5.0 2 ------- null}
+ -t 1.23548266666667 -s 2 -d 3 -p tcp -e 1040 -c 0 -i 3 -a 0 -x {0.0 5.0 2 ------- null}
- -t 1.25461866666667 -s 2 -d 3 -p tcp -e 1040 -c 0 -i 3 -a 0 -x {0.0 5.0 2 ------- null}
h -t 1.25461866666667 -s 2 -d 3 -p tcp -e 1040 -c 0 -i 3 -a 0 -x {0.0 5.0 -1 ------- null}
r -t 1.26461866666667 -s 2 -d 3 -p tcp -e 1040 -c 0 -i 2 -a 0 -x {0.0 5.0 1 ------- null}
+ -t 1.26461866666667 -s 3 -d 5 -p tcp -e 1040 -c 0 -i 2 -a 0 -x {0.0 5.0 1 ------- null}
- -t 1.26461866666667 -s 3 -d 5 -p tcp -e 1040 -c 0 -i 2 -a 0 -x {0.0 5.0 1 ------- null}
h -t 1.26461866666667 -s 3 -d 5 -p tcp -e 1040 -c 0 -i 2 -a 0 -x {0.0 5.0 -1 ------- null}
r -t 1.27216533333333 -s 3 -d 5 -p tcp -e 1040 -c 0 -i 2 -a 0 -x {0.0 5.0 1 ------- null}
+ -t 1.27216533333333 -s 5 -d 3 -p ack -e 40 -c 0 -i 4 -a 0 -x {5.0 0.0 1 ------- null}
- -t 1.27216533333333 -s 5 -d 3 -p ack -e 40 -c 0 -i 4 -a 0 -x {5.0 0.0 1 ------- null}
h -t 1.27216533333333 -s 5 -d 3 -p ack -e 40 -c 0 -i 4 -a 0 -x {5.0 0.0 -1 ------- null}
r -t 1.27437866666667 -s 5 -d 3 -p ack -e 40 -c 0 -i 4 -a 0 -x {5.0 0.0 1 ------- null}
+ -t 1.27437866666667 -s 3 -d 2 -p ack -e 40 -c 0 -i 4 -a 0 -x {5.0 0.0 1 ------- null}
- -t 1.27437866666667 -s 3 -d 2 -p ack -e 40 -c 0 -i 4 -a 0 -x {5.0 0.0 1 ------- null}
h -t 1.27437866666667 -s 3 -d 2 -p ack -e 40 -c 0 -i 4 -a 0 -x {5.0 0.0 -1 ------- null}
r -t 1.28517866666667 -s 3 -d 2 -p ack -e 40 -c 0 -i 4 -a 0 -x {5.0 0.0 1 ------- null}
+ -t 1.28517866666667 -s 2 -d 0 -p ack -e 40 -c 0 -i 4 -a 0 -x {5.0 0.0 1 ------- null}
- -t 1.28517866666667 -s 2 -d 0 -p ack -e 40 -c 0 -i 4 -a 0 -x {5.0 0.0 1 ------- null}
h -t 1.28517866666667 -s 2 -d 0 -p ack -e 40 -c 0 -i 4 -a 0 -x {5.0 0.0 -1 ------- null}
r -t 1.28541866666667 -s 2 -d 3 -p tcp -e 1040 -c 0 -i 3 -a 0 -x {0.0 5.0 2 ------- null}
+ -t 1.28541866666667 -s 3 -d 5 -p tcp -e 1040 -c 0 -i 3 -a 0 -x {0.0 5.0 2 ------- null}
- -t 1.28541866666667 -s 3 -d 5 -p tcp -e 1040 -c 0 -i 3 -a 0 -x {0.0 5.0 2 ------- null}
h -t 1.28541866666667 -s 3 -d 5 -p tcp -e 1040 -c 0 -i 3 -a 0 -x {0.0 5.0 -1 ------- null}
r -t 1.28724266666667 -s 2 -d 0 -p ack -e 40 -c 0 -i 4 -a 0 -x {5.0 0.0 1 ------- null}
+ -t 1.28724266666667 -s 0 -d 2 -p tcp -e 1040 -c 0 -i 5 -a 0 -x {0.0 5.0 3 ------- null}
- -t 1.28724266666667 -s 0 -d 2 -p tcp -e 1040 -c 0 -i 5 -a 0 -x {0.0 5.0 3 ------- null}
h -t 1.28724266666667 -s 0 -d 2 -p tcp -e 1040 -c 0 -i 5 -a 0 -x {0.0 5.0 -1 ------- null}
+ -t 1.28724266666667 -s 0 -d 2 -p tcp -e 1040 -c 0 -i 6 -a 0 -x {0.0 5.0 4 ------- null}
- -t 1.28890666666667 -s 0 -d 2 -p tcp -e 1040 -c 0 -i 6 -a 0 -x {0.0 5.0 4 ------- null}
h -t 1.28890666666667 -s 0 -d 2 -p tcp -e 1040 -c 0 -i 6 -a 0 -x {0.0 5.0 -1 ------- null}
r -t 1.29090666666667 -s 0 -d 2 -p tcp -e 1040 -c 0 -i 5 -a 0 -x {0.0 5.0 3 ------- null}
+ -t 1.29090666666667 -s 2 -d 3 -p tcp -e 1040 -c 0 -i 5 -a 0 -x {0.0 5.0 3 ------- null}
- -t 1.29090666666667 -s 2 -d 3 -p tcp -e 1040 -c 0 -i 5 -a 0 -x {0.0 5.0 3 ------- null}
h -t 1.29090666666667 -s 2 -d 3 -p tcp -e 1040 -c 0 -i 5 -a 0 -x {0.0 5.0 -1 ------- null}
r -t 1.29257066666667 -s 0 -d 2 -p tcp -e 1040 -c 0 -i 6 -a 0 -x {0.0 5.0 4 ------- null}
+ -t 1.29257066666667 -s 2 -d 3 -p tcp -e 1040 -c 0 -i 6 -a 0 -x {0.0 5.0 4 ------- null}
r -t 1.29296533333333 -s 3 -d 5 -p tcp -e 1040 -c 0 -i 3 -a 0 -x {0.0 5.0 2 ------- null}
+ -t 1.29296533333333 -s 5 -d 3 -p ack -e 40 -c 0 -i 7 -a 0 -x {5.0 0.0 2 ------- null}
- -t 1.29296533333333 -s 5 -d 3 -p ack -e 40 -c 0 -i 7 -a 0 -x {5.0 0.0 2 ------- null}
h -t 1.29296533333333 -s 5 -d 3 -p ack -e 40 -c 0 -i 7 -a 0 -x {5.0 0.0 -1 ------- null}
r -t 1.29517866666667 -s 5 -d 3 -p ack -e 40 -c 0 -i 7 -a 0 -x {5.0 0.0 2 ------- null}
+ -t 1.29517866666667 -s 3 -d 2 -p ack -e 40 -c 0 -i 7 -a 0 -x {5.0 0.0 2 ------- null}
- -t 1.29517866666667 -s 3 -d 2 -p ack -e 40 -c 0 -i 7 -a 0 -x {5.0 0.0 2 ------- null}
h -t 1.29517866666667 -s 3 -d 2 -p ack -e 40 -c 0 -i 7 -a 0 -x {5.0 0.0 -1 ------- null}
r -t 1.30597866666667 -s 3 -d 2 -p ack -e 40 -c 0 -i 7 -a 0 -x {5.0 0.0 2 ------- null}
+ -t 1.30597866666667 -s 2 -d 0 -p ack -e 40 -c 0 -i 7 -a 0 -x {5.0 0.0 2 ------- null}
- -t 1.30597866666667 -s 2 -d 0 -p ack -e 40 -c 0 -i 7 -a 0 -x {5.0 0.0 2 ------- null}
h -t 1.30597866666667 -s 2 -d 0 -p ack -e 40 -c 0 -i 7 -a 0 -x {5.0 0.0 -1 ------- null}
r -t 1.30804266666667 -s 2 -d 0 -p ack -e 40 -c 0 -i 7 -a 0 -x {5.0 0.0 2 ------- null}
+ -t 1.30804266666667 -s 0 -d 2 -p tcp -e 1040 -c 0 -i 8 -a 0 -x {0.0 5.0 5 ------- null}
- -t 1.30804266666667 -s 0 -d 2 -p tcp -e 1040 -c 0 -i 8 -a 0 -x {0.0 5.0 5 ------- null}
h -t 1.30804266666667 -s 0 -d 2 -p tcp -e 1040 -c 0 -i 8 -a 0 -x {0.0 5.0 -1 ------- null}
+ -t 1.30804266666667 -s 0 -d 2 -p tcp -e 1040 -c 0 -i 9 -a 0 -x {0.0 5.0 6 ------- null}
- -t 1.30970666666667 -s 0 -d 2 -p tcp -e 1040 -c 0 -i 9 -a 0 -x {0.0 5.0 6 ------- null}
h -t 1.30970666666667 -s 0 -d 2 -p tcp -e 1040 -c 0 -i 9 -a 0 -x {0.0 5.0 -1 ------- null}
- -t 1.31170666666667 -s 2 -d 3 -p tcp -e 1040 -c 0 -i 6 -a 0 -x {0.0 5.0 4 ------- null}
h -t 1.31170666666667 -s 2 -d 3 -p tcp -e 1040 -c 0 -i 6 -a 0 -x {0.0 5.0 -1 ------- null}
r -t 1.31170666666667 -s 0 -d 2 -p tcp -e 1040 -c 0 -i 8 -a 0 -x {0.0 5.0 5 ------- null}
+ -t 1.31170666666667 -s 2 -d 3 -p tcp -e 1040 -c 0 -i 8 -a 0 -x {0.0 5.0 5 ------- null}
r -t 1.31337066666667 -s 0 -d 2 -p tcp -e 1040 -c 0 -i 9 -a 0 -x {0.0 5.0 6 ------- null}
+ -t 1.31337066666667 -s 2 -d 3 -p tcp -e 1040 -c 0 -i 9 -a 0 -x {0.0 5.0 6 ------- null}
r -t 1.32170666666667 -s 2 -d 3 -p tcp -e 1040 -c 0 -i 5 -a 0 -x {0.0 5.0 3 ------- null}
+ -t 1.32170666666667 -s 3 -d 5 -p tcp -e 1040 -c 0 -i 5 -a 0 -x {0.0 5.0 3 ------- null}
- -t 1.32170666666667 -s 3 -d 5 -p tcp -e 1040 -c 0 -i 5 -a 0 -x {0.0 5.0 3 ------- null}
h -t 1.32170666666667 -s 3 -d 5 -p tcp -e 1040 -c 0 -i 5 -a 0 -x {0.0 5.0 -1 ------- null}
r -t 1.32925333333333 -s 3 -d 5 -p tcp -e 1040 -c 0 -i 5 -a 0 -x {0.0 5.0 3 ------- null}
+ -t 1.32925333333333 -s 5 -d 3 -p ack -e 40 -c 0 -i 10 -a 0 -x {5.0 0.0 3 ------- null}
- -t 1.32925333333333 -s 5 -d 3 -p ack -e 40 -c 0 -i 10 -a 0 -x {5.0 0.0 3 ------- null}
h -t 1.32925333333333 -s 5 -d 3 -p ack -e 40 -c 0 -i 10 -a 0 -x {5.0 0.0 -1 ------- null}
r -t 1.33146666666667 -s 5 -d 3 -p ack -e 40 -c 0 -i 10 -a 0 -x {5.0 0.0 3 ------- null}
+ -t 1.33146666666667 -s 3 -d 2 -p ack -e 40 -c 0 -i 10 -a 0 -x {5.0 0.0 3 ------- null}
- -t 1.33146666666667 -s 3 -d 2 -p ack -e 40 -c 0 -i 10 -a 0 -x {5.0 0.0 3 ------- null}
h -t 1.33146666666667 -s 3 -d 2 -p ack -e 40 -c 0 -i 10 -a 0 -x {5.0 0.0 -1 ------- null}
- -t 1.33250666666667 -s 2 -d 3 -p tcp -e 1040 -c 0 -i 8 -a 0 -x {0.0 5.0 5 ------- null}
h -t 1.33250666666667 -s 2 -d 3 -p tcp -e 1040 -c 0 -i 8 -a 0 -x {0.0 5.0 -1 ------- null}
r -t 1.34226666666667 -s 3 -d 2 -p ack -e 40 -c 0 -i 10 -a 0 -x {5.0 0.0 3 ------- null}
+ -t 1.34226666666667 -s 2 -d 0 -p ack -e 40 -c 0 -i 10 -a 0 -x {5.0 0.0 3 ------- null}
- -t 1.34226666666667 -s 2 -d 0 -p ack -e 40 -c 0 -i 10 -a 0 -x {5.0 0.0 3 ------- null}
h -t 1.34226666666667 -s 2 -d 0 -p ack -e 40 -c 0 -i 10 -a 0 -x {5.0 0.0 -1 ------- null}
r -t 1.34250666666667 -s 2 -d 3 -p tcp -e 1040 -c 0 -i 6 -a 0 -x {0.0 5.0 4 ------- null}
+ -t 1.34250666666667 -s 3 -d 5 -p tcp -e 1040 -c 0 -i 6 -a 0 -x {0.0 5.0 4 ------- null}
- -t 1.34250666666667 -s 3 -d 5 -p tcp -e 1040 -c 0 -i 6 -a 0 -x {0.0 5.0 4 ------- null}
h -t 1.34250666666667 -s 3 -d 5 -p tcp -e 1040 -c 0 -i 6 -a 0 -x {0.0 5.0 -1 ------- null}
r -t 1.34433066666667 -s 2 -d 0 -p ack -e 40 -c 0 -i 10 -a 0 -x {5.0 0.0 3 ------- null}
+ -t 1.34433066666667 -s 0 -d 2 -p tcp -e 1040 -c 0 -i 11 -a 0 -x {0.0 5.0 7 ------- null}
- -t 1.34433066666667 -s 0 -d 2 -p tcp -e 1040 -c 0 -i 11 -a 0 -x {0.0 5.0 7 ------- null}
h -t 1.34433066666667 -s 0 -d 2 -p tcp -e 1040 -c 0 -i 11 -a 0 -x {0.0 5.0 -1 ------- null}
+ -t 1.34433066666667 -s 0 -d 2 -p tcp -e 1040 -c 0 -i 12 -a 0 -x {0.0 5.0 8 ------- null}
- -t 1.34599466666667 -s 0 -d 2 -p tcp -e 1040 -c 0 -i 12 -a 0 -x {0.0 5.0 8 ------- null}
h -t 1.34599466666667 -s 0 -d 2 -p tcp -e 1040 -c 0 -i 12 -a 0 -x {0.0 5.0 -1 ------- null}
r -t 1.34799466666667 -s 0 -d 2 -p tcp -e 1040 -c 0 -i 11 -a 0 -x {0.0 5.0 7 ------- null}
+ -t 1.34799466666667 -s 2 -d 3 -p tcp -e 1040 -c 0 -i 11 -a 0 -x {0.0 5.0 7 ------- null}
r -t 1.34965866666667 -s 0 -d 2 -p tcp -e 1040 -c 0 -i 12 -a 0 -x {0.0 5.0 8 ------- null}
+ -t 1.34965866666667 -s 2 -d 3 -p tcp -e 1040 -c 0 -i 12 -a 0 -x {0.0 5.0 8 ------- null}
r -t 1.35005333333333 -s 3 -d 5 -p tcp -e 1040 -c 0 -i 6 -a 0 -x {0.0 5.0 4 ------- null}
+ -t 1.35005333333333 -s 5 -d 3 -p ack -e 40 -c 0 -i 13 -a 0 -x {5.0 0.0 4 ------- null}
- -t 1.35005333333333 -s 5 -d 3 -p ack -e 40 -c 0 -i 13 -a 0 -x {5.0 0.0 4 ------- null}
h -t 1.35005333333333 -s 5 -d 3 -p ack -e 40 -c 0 -i 13 -a 0 -x {5.0 0.0 -1 ------- null}
r -t 1.35226666666667 -s 5 -d 3 -p ack -e 40 -c 0 -i 13 -a 0 -x {5.0 0.0 4 ------- null}
+ -t 1.35226666666667 -s 3 -d 2 -p ack -e 40 -c 0 -i 13 -a 0 -x {5.0 0.0 4 ------- null}
- -t 1.35226666666667 -s 3 -d 2 -p ack -e 40 -c 0 -i 13 -a 0 -x {5.0 0.0 4 ------- null}
h -t 1.35226666666667 -s 3 -d 2 -p ack -e 40 -c 0 -i 13 -a 0 -x {5.0 0.0 -1 ------- null}
- -t 1.35330666666667 -s 2 -d 3 -p tcp -e 1040 -c 0 -i 9 -a 0 -x {0.0 5.0 6 ------- null}
h -t 1.35330666666667 -s 2 -d 3 -p tcp -e 1040 -c 0 -i 9 -a 0 -x {0.0 5.0 -1 ------- null}
r -t 1.36306666666667 -s 3 -d 2 -p ack -e 40 -c 0 -i 13 -a 0 -x {5.0 0.0 4 ------- null}
+ -t 1.36306666666667 -s 2 -d 0 -p ack -e 40 -c 0 -i 13 -a 0 -x {5.0 0.0 4 ------- null}
- -t 1.36306666666667 -s 2 -d 0 -p ack -e 40 -c 0 -i 13 -a 0 -x {5.0 0.0 4 ------- null}
h -t 1.36306666666667 -s 2 -d 0 -p ack -e 40 -c 0 -i 13 -a 0 -x {5.0 0.0 -1 ------- null}
r -t 1.36330666666667 -s 2 -d 3 -p tcp -e 1040 -c 0 -i 8 -a 0 -x {0.0 5.0 5 ------- null}
+ -t 1.36330666666667 -s 3 -d 5 -p tcp -e 1040 -c 0 -i 8 -a 0 -x {0.0 5.0 5 ------- null}
- -t 1.36330666666667 -s 3 -d 5 -p tcp -e 1040 -c 0 -i 8 -a 0 -x {0.0 5.0 5 ------- null}
h -t 1.36330666666667 -s 3 -d 5 -p tcp -e 1040 -c 0 -i 8 -a 0 -x {0.0 5.0 -1 ------- null}
r -t 1.36513066666667 -s 2 -d 0 -p ack -e 40 -c 0 -i 13 -a 0 -x {5.0 0.0 4 ------- null}
+ -t 1.36513066666667 -s 0 -d 2 -p tcp -e 1040 -c 0 -i 14 -a 0 -x {0.0 5.0 9 ------- null}
- -t 1.36513066666667 -s 0 -d 2 -p tcp -e 1040 -c 0 -i 14 -a 0 -x {0.0 5.0 9 ------- null}
h -t 1.36513066666667 -s 0 -d 2 -p tcp -e 1040 -c 0 -i 14 -a 0 -x {0.0 5.0 -1 ------- null}
+ -t 1.36513066666667 -s 0 -d 2 -p tcp -e 1040 -c 0 -i 15 -a 0 -x {0.0 5.0 10 ------- null}
- -t 1.36679466666667 -s 0 -d 2 -p tcp -e 1040 -c 0 -i 15 -a 0 -x {0.0 5.0 10 ------- null}
h -t 1.36679466666667 -s 0 -d 2 -p tcp -e 1040 -c 0 -i 15 -a 0 -x {0.0 5.0 -1 ------- null}
r -t 1.36879466666667 -s 0 -d 2 -p tcp -e 1040 -c 0 -i 14 -a 0 -x {0.0 5.0 9 ------- null}
+ -t 1.36879466666667 -s 2 -d 3 -p tcp -e 1040 -c 0 -i 14 -a 0 -x {0.0 5.0 9 ------- null}
r -t 1.37045866666667 -s 0 -d 2 -p tcp -e 1040 -c 0 -i 15 -a 0 -x {0.0 5.0 10 ------- null}
+ -t 1.37045866666667 -s 2 -d 3 -p tcp -e 1040 -c 0 -i 15 -a 0 -x {0.0 5.0 10 ------- null}
r -t 1.37085333333333 -s 3 -d 5 -p tcp -e 1040 -c 0 -i 8 -a 0 -x {0.0 5.0 5 ------- null}
+ -t 1.37085333333333 -s 5 -d 3 -p ack -e 40 -c 0 -i 16 -a 0 -x {5.0 0.0 5 ------- null}
- -t 1.37085333333333 -s 5 -d 3 -p ack -e 40 -c 0 -i 16 -a 0 -x {5.0 0.0 5 ------- null}
h -t 1.37085333333333 -s 5 -d 3 -p ack -e 40 -c 0 -i 16 -a 0 -x {5.0 0.0 -1 ------- null}
r -t 1.37306666666667 -s 5 -d 3 -p ack -e 40 -c 0 -i 16 -a 0 -x {5.0 0.0 5 ------- null}
+ -t 1.37306666666667 -s 3 -d 2 -p ack -e 40 -c 0 -i 16 -a 0 -x {5.0 0.0 5 ------- null}
- -t 1.37306666666667 -s 3 -d 2 -p ack -e 40 -c 0 -i 16 -a 0 -x {5.0 0.0 5 ------- null}
h -t 1.37306666666667 -s 3 -d 2 -p ack -e 40 -c 0 -i 16 -a 0 -x {5.0 0.0 -1 ------- null}
- -t 1.37410666666667 -s 2 -d 3 -p tcp -e 1040 -c 0 -i 11 -a 0 -x {0.0 5.0 7 ------- null}
h -t 1.37410666666667 -s 2 -d 3 -p tcp -e 1040 -c 0 -i 11 -a 0 -x {0.0 5.0 -1 ------- null}
r -t 1.38386666666667 -s 3 -d 2 -p ack -e 40 -c 0 -i 16 -a 0 -x {5.0 0.0 5 ------- null}
+ -t 1.38386666666667 -s 2 -d 0 -p ack -e 40 -c 0 -i 16 -a 0 -x {5.0 0.0 5 ------- null}
- -t 1.38386666666667 -s 2 -d 0 -p ack -e 40 -c 0 -i 16 -a 0 -x {5.0 0.0 5 ------- null}
h -t 1.38386666666667 -s 2 -d 0 -p ack -e 40 -c 0 -i 16 -a 0 -x {5.0 0.0 -1 ------- null}
r -t 1.38410666666667 -s 2 -d 3 -p tcp -e 1040 -c 0 -i 9 -a 0 -x {0.0 5.0 6 ------- null}
+ -t 1.38410666666667 -s 3 -d 5 -p tcp -e 1040 -c 0 -i 9 -a 0 -x {0.0 5.0 6 ------- null}
- -t 1.38410666666667 -s 3 -d 5 -p tcp -e 1040 -c 0 -i 9 -a 0 -x {0.0 5.0 6 ------- null}
h -t 1.38410666666667 -s 3 -d 5 -p tcp -e 1040 -c 0 -i 9 -a 0 -x {0.0 5.0 -1 ------- null}
r -t 1.38593066666667 -s 2 -d 0 -p ack -e 40 -c 0 -i 16 -a 0 -x {5.0 0.0 5 ------- null}
+ -t 1.38593066666667 -s 0 -d 2 -p tcp -e 1040 -c 0 -i 17 -a 0 -x {0.0 5.0 11 ------- null}
- -t 1.38593066666667 -s 0 -d 2 -p tcp -e 1040 -c 0 -i 17 -a 0 -x {0.0 5.0 11 ------- null}
h -t 1.38593066666667 -s 0 -d 2 -p tcp -e 1040 -c 0 -i 17 -a 0 -x {0.0 5.0 -1 ------- null}
+ -t 1.38593066666667 -s 0 -d 2 -p tcp -e 1040 -c 0 -i 18 -a 0 -x {0.0 5.0 12 ------- null}
- -t 1.38759466666667 -s 0 -d 2 -p tcp -e 1040 -c 0 -i 18 -a 0 -x {0.0 5.0 12 ------- null}
h -t 1.38759466666667 -s 0 -d 2 -p tcp -e 1040 -c 0 -i 18 -a 0 -x {0.0 5.0 -1 ------- null}
r -t 1.38959466666667 -s 0 -d 2 -p tcp -e 1040 -c 0 -i 17 -a 0 -x {0.0 5.0 11 ------- null}
+ -t 1.38959466666667 -s 2 -d 3 -p tcp -e 1040 -c 0 -i 17 -a 0 -x {0.0 5.0 11 ------- null}
r -t 1.39125866666667 -s 0 -d 2 -p tcp -e 1040 -c 0 -i 18 -a 0 -x {0.0 5.0 12 ------- null}
+ -t 1.39125866666667 -s 2 -d 3 -p tcp -e 1040 -c 0 -i 18 -a 0 -x {0.0 5.0 12 ------- null}
r -t 1.39165333333333 -s 3 -d 5 -p tcp -e 1040 -c 0 -i 9 -a 0 -x {0.0 5.0 6 ------- null}
+ -t 1.39165333333333 -s 5 -d 3 -p ack -e 40 -c 0 -i 19 -a 0 -x {5.0 0.0 6 ------- null}
- -t 1.39165333333333 -s 5 -d 3 -p ack -e 40 -c 0 -i 19 -a 0 -x {5.0 0.0 6 ------- null}
h -t 1.39165333333333 -s 5 -d 3 -p ack -e 40 -c 0 -i 19 -a 0 -x {5.0 0.0 -1 ------- null}
r -t 1.39386666666667 -s 5 -d 3 -p ack -e 40 -c 0 -i 19 -a 0 -x {5.0 0.0 6 ------- null}
+ -t 1.39386666666667 -s 3 -d 2 -p ack -e 40 -c 0 -i 19 -a 0 -x {5.0 0.0 6 ------- null}
- -t 1.39386666666667 -s 3 -d 2 -p ack -e 40 -c 0 -i 19 -a 0 -x {5.0 0.0 6 ------- null}
h -t 1.39386666666667 -s 3 -d 2 -p ack -e 40 -c 0 -i 19 -a 0 -x {5.0 0.0 -1 ------- null}
- -t 1.39490666666667 -s 2 -d 3 -p tcp -e 1040 -c 0 -i 12 -a 0 -x {0.0 5.0 8 ------- null}
h -t 1.39490666666667 -s 2 -d 3 -p tcp -e 1040 -c 0 -i 12 -a 0 -x {0.0 5.0 -1 ------- null}
r -t 1.40466666666667 -s 3 -d 2 -p ack -e 40 -c 0 -i 19 -a 0 -x {5.0 0.0 6 ------- null}
+ -t 1.40466666666667 -s 2 -d 0 -p ack -e 40 -c 0 -i 19 -a 0 -x {5.0 0.0 6 ------- null}
- -t 1.40466666666667 -s 2 -d 0 -p ack -e 40 -c 0 -i 19 -a 0 -x {5.0 0.0 6 ------- null}
h -t 1.40466666666667 -s 2 -d 0 -p ack -e 40 -c 0 -i 19 -a 0 -x {5.0 0.0 -1 ------- null}
r -t 1.40490666666667 -s 2 -d 3 -p tcp -e 1040 -c 0 -i 11 -a 0 -x {0.0 5.0 7 ------- null}
+ -t 1.40490666666667 -s 3 -d 5 -p tcp -e 1040 -c 0 -i 11 -a 0 -x {0.0 5.0 7 ------- null}
- -t 1.40490666666667 -s 3 -d 5 -p tcp -e 1040 -c 0 -i 11 -a 0 -x {0.0 5.0 7 ------- null}
h -t 1.40490666666667 -s 3 -d 5 -p tcp -e 1040 -c 0 -i 11 -a 0 -x {0.0 5.0 -1 ------- null}
r -t 1.40673066666667 -s 2 -d 0 -p ack -e 40 -c 0 -i 19 -a 0 -x {5.0 0.0 6 ------- null}
+ -t 1.40673066666667 -s 0 -d 2 -p tcp -e 1040 -c 0 -i 20 -a 0 -x {0.0 5.0 13 ------- null}
- -t 1.40673066666667 -s 0 -d 2 -p tcp -e 1040 -c 0 -i 20 -a 0 -x {0.0 5.0 13 ------- null}
h -t 1.40673066666667 -s 0 -d 2 -p tcp -e 1040 -c 0 -i 20 -a 0 -x {0.0 5.0 -1 ------- null}
+ -t 1.40673066666667 -s 0 -d 2 -p tcp -e 1040 -c 0 -i 21 -a 0 -x {0.0 5.0 14 ------- null}
- -t 1.40839466666667 -s 0 -d 2 -p tcp -e 1040 -c 0 -i 21 -a 0 -x {0.0 5.0 14 ------- null}
h -t 1.40839466666667 -s 0 -d 2 -p tcp -e 1040 -c 0 -i 21 -a 0 -x {0.0 5.0 -1 ------- null}
r -t 1.41039466666667 -s 0 -d 2 -p tcp -e 1040 -c 0 -i 20 -a 0 -x {0.0 5.0 13 ------- null}
+ -t 1.41039466666667 -s 2 -d 3 -p tcp -e 1040 -c 0 -i 20 -a 0 -x {0.0 5.0 13 ------- null}
r -t 1.41205866666667 -s 0 -d 2 -p tcp -e 1040 -c 0 -i 21 -a 0 -x {0.0 5.0 14 ------- null}
+ -t 1.41205866666667 -s 2 -d 3 -p tcp -e 1040 -c 0 -i 21 -a 0 -x {0.0 5.0 14 ------- null}
r -t 1.41245333333333 -s 3 -d 5 -p tcp -e 1040 -c 0 -i 11 -a 0 -x {0.0 5.0 7 ------- null}
+ -t 1.41245333333333 -s 5 -d 3 -p ack -e 40 -c 0 -i 22 -a 0 -x {5.0 0.0 7 ------- null}
- -t 1.41245333333333 -s 5 -d 3 -p ack -e 40 -c 0 -i 22 -a 0 -x {5.0 0.0 7 ------- null}
h -t 1.41245333333333 -s 5 -d 3 -p ack -e 40 -c 0 -i 22 -a 0 -x {5.0 0.0 -1 ------- null}
r -t 1.41466666666667 -s 5 -d 3 -p ack -e 40 -c 0 -i 22 -a 0 -x {5.0 0.0 7 ------- null}
+ -t 1.41466666666667 -s 3 -d 2 -p ack -e 40 -c 0 -i 22 -a 0 -x {5.0 0.0 7 ------- null}
- -t 1.41466666666667 -s 3 -d 2 -p ack -e 40 -c 0 -i 22 -a 0 -x {5.0 0.0 7 ------- null}
h -t 1.41466666666667 -s 3 -d 2 -p ack -e 40 -c 0 -i 22 -a 0 -x {5.0 0.0 -1 ------- null}
- -t 1.41570666666667 -s 2 -d 3 -p tcp -e 1040 -c 0 -i 14 -a 0 -x {0.0 5.0 9 ------- null}
h -t 1.41570666666667 -s 2 -d 3 -p tcp -e 1040 -c 0 -i 14 -a 0 -x {0.0 5.0 -1 ------- null}
r -t 1.42546666666667 -s 3 -d 2 -p ack -e 40 -c 0 -i 22 -a 0 -x {5.0 0.0 7 ------- null}
+ -t 1.42546666666667 -s 2 -d 0 -p ack -e 40 -c 0 -i 22 -a 0 -x {5.0 0.0 7 ------- null}
- -t 1.42546666666667 -s 2 -d 0 -p ack -e 40 -c 0 -i 22 -a 0 -x {5.0 0.0 7 ------- null}
h -t 1.42546666666667 -s 2 -d 0 -p ack -e 40 -c 0 -i 22 -a 0 -x {5.0 0.0 -1 ------- null}
r -t 1.42570666666667 -s 2 -d 3 -p tcp -e 1040 -c 0 -i 12 -a 0 -x {0.0 5.0 8 ------- null}
+ -t 1.42570666666667 -s 3 -d 5 -p tcp -e 1040 -c 0 -i 12 -a 0 -x {0.0 5.0 8 ------- null}
- -t 1.42570666666667 -s 3 -d 5 -p tcp -e 1040 -c 0 -i 12 -a 0 -x {0.0 5.0 8 ------- null}
h -t 1.42570666666667 -s 3 -d 5 -p tcp -e 1040 -c 0 -i 12 -a 0 -x {0.0 5.0 -1 ------- null}
r -t 1.42753066666667 -s 2 -d 0 -p ack -e 40 -c 0 -i 22 -a 0 -x {5.0 0.0 7 ------- null}
+ -t 1.42753066666667 -s 0 -d 2 -p tcp -e 1040 -c 0 -i 23 -a 0 -x {0.0 5.0 15 ------- null}
- -t 1.42753066666667 -s 0 -d 2 -p tcp -e 1040 -c 0 -i 23 -a 0 -x {0.0 5.0 15 ------- null}
h -t 1.42753066666667 -s 0 -d 2 -p tcp -e 1040 -c 0 -i 23 -a 0 -x {0.0 5.0 -1 ------- null}
+ -t 1.42753066666667 -s 0 -d 2 -p tcp -e 1040 -c 0 -i 24 -a 0 -x {0.0 5.0 16 ------- null}
- -t 1.42919466666667 -s 0 -d 2 -p tcp -e 1040 -c 0 -i 24 -a 0 -x {0.0 5.0 16 ------- null}
h -t 1.42919466666667 -s 0 -d 2 -p tcp -e 1040 -c 0 -i 24 -a 0 -x {0.0 5.0 -1 ------- null}
r -t 1.43119466666667 -s 0 -d 2 -p tcp -e 1040 -c 0 -i 23 -a 0 -x {0.0 5.0 15 ------- null}
+ -t 1.43119466666667 -s 2 -d 3 -p tcp -e 1040 -c 0 -i 23 -a 0 -x {0.0 5.0 15 ------- null}
r -t 1.43285866666667 -s 0 -d 2 -p tcp -e 1040 -c 0 -i 24 -a 0 -x {0.0 5.0 16 ------- null}
+ -t 1.43285866666667 -s 2 -d 3 -p tcp -e 1040 -c 0 -i 24 -a 0 -x {0.0 5.0 16 ------- null}
r -t 1.43325333333333 -s 3 -d 5 -p tcp -e 1040 -c 0 -i 12 -a 0 -x {0.0 5.0 8 ------- null}
+ -t 1.43325333333333 -s 5 -d 3 -p ack -e 40 -c 0 -i 25 -a 0 -x {5.0 0.0 8 ------- null}
- -t 1.43325333333333 -s 5 -d 3 -p ack -e 40 -c 0 -i 25 -a 0 -x {5.0 0.0 8 ------- null}
h -t 1.43325333333333 -s 5 -d 3 -p ack -e 40 -c 0 -i 25 -a 0 -x {5.0 0.0 -1 ------- null}
r -t 1.43546666666667 -s 5 -d 3 -p ack -e 40 -c 0 -i 25 -a 0 -x {5.0 0.0 8 ------- null}
+ -t 1.43546666666667 -s 3 -d 2 -p ack -e 40 -c 0 -i 25 -a 0 -x {5.0 0.0 8 ------- null}
- -t 1.43546666666667 -s 3 -d 2 -p ack -e 40 -c 0 -i 25 -a 0 -x {5.0 0.0 8 ------- null}
h -t 1.43546666666667 -s 3 -d 2 -p ack -e 40 -c 0 -i 25 -a 0 -x {5.0 0.0 -1 ------- null}
- -t 1.43650666666667 -s 2 -d 3 -p tcp -e 1040 -c 0 -i 15 -a 0 -x {0.0 5.0 10 ------- null}
h -t 1.43650666666667 -s 2 -d 3 -p tcp -e 1040 -c 0 -i 15 -a 0 -x {0.0 5.0 -1 ------- null}
r -t 1.44626666666667 -s 3 -d 2 -p ack -e 40 -c 0 -i 25 -a 0 -x {5.0 0.0 8 ------- null}
+ -t 1.44626666666667 -s 2 -d 0 -p ack -e 40 -c 0 -i 25 -a 0 -x {5.0 0.0 8 ------- null}
- -t 1.44626666666667 -s 2 -d 0 -p ack -e 40 -c 0 -i 25 -a 0 -x {5.0 0.0 8 ------- null}
h -t 1.44626666666667 -s 2 -d 0 -p ack -e 40 -c 0 -i 25 -a 0 -x {5.0 0.0 -1 ------- null}
r -t 1.44650666666667 -s 2 -d 3 -p tcp -e 1040 -c 0 -i 14 -a 0 -x {0.0 5.0 9 ------- null}
+ -t 1.44650666666667 -s 3 -d 5 -p tcp -e 1040 -c 0 -i 14 -a 0 -x {0.0 5.0 9 ------- null}
- -t 1.44650666666667 -s 3 -d 5 -p tcp -e 1040 -c 0 -i 14 -a 0 -x {0.0 5.0 9 ------- null}
h -t 1.44650666666667 -s 3 -d 5 -p tcp -e 1040 -c 0 -i 14 -a 0 -x {0.0 5.0 -1 ------- null}
r -t 1.44833066666667 -s 2 -d 0 -p ack -e 40 -c 0 -i 25 -a 0 -x {5.0 0.0 8 ------- null}
+ -t 1.44833066666667 -s 0 -d 2 -p tcp -e 1040 -c 0 -i 26 -a 0 -x {0.0 5.0 17 ------- null}
- -t 1.44833066666667 -s 0 -d 2 -p tcp -e 1040 -c 0 -i 26 -a 0 -x {0.0 5.0 17 ------- null}
h -t 1.44833066666667 -s 0 -d 2 -p tcp -e 1040 -c 0 -i 26 -a 0 -x {0.0 5.0 -1 ------- null}
+ -t 1.44833066666667 -s 0 -d 2 -p tcp -e 1040 -c 0 -i 27 -a 0 -x {0.0 5.0 18 ------- null}
- -t 1.44999466666667 -s 0 -d 2 -p tcp -e 1040 -c 0 -i 27 -a 0 -x {0.0 5.0 18 ------- null}
h -t 1.44999466666667 -s 0 -d 2 -p tcp -e 1040 -c 0 -i 27 -a 0 -x {0.0 5.0 -1 ------- null}
r -t 1.45199466666667 -s 0 -d 2 -p tcp -e 1040 -c 0 -i 26 -a 0 -x {0.0 5.0 17 ------- null}
+ -t 1.45199466666667 -s 2 -d 3 -p tcp -e 1040 -c 0 -i 26 -a 0 -x {0.0 5.0 17 ------- null}
r -t 1.45365866666667 -s 0 -d 2 -p tcp -e 1040 -c 0 -i 27 -a 0 -x {0.0 5.0 18 ------- null}
+ -t 1.45365866666667 -s 2 -d 3 -p tcp -e 1040 -c 0 -i 27 -a 0 -x {0.0 5.0 18 ------- null}
r -t 1.45405333333333 -s 3 -d 5 -p tcp -e 1040 -c 0 -i 14 -a 0 -x {0.0 5.0 9 ------- null}
+ -t 1.45405333333333 -s 5 -d 3 -p ack -e 40 -c 0 -i 28 -a 0 -x {5.0 0.0 9 ------- null}
- -t 1.45405333333333 -s 5 -d 3 -p ack -e 40 -c 0 -i 28 -a 0 -x {5.0 0.0 9 ------- null}
h -t 1.45405333333333 -s 5 -d 3 -p ack -e 40 -c 0 -i 28 -a 0 -x {5.0 0.0 -1 ------- null}
r -t 1.45626666666667 -s 5 -d 3 -p ack -e 40 -c 0 -i 28 -a 0 -x {5.0 0.0 9 ------- null}
+ -t 1.45626666666667 -s 3 -d 2 -p ack -e 40 -c 0 -i 28 -a 0 -x {5.0 0.0 9 ------- null}
- -t 1.45626666666667 -s 3 -d 2 -p ack -e 40 -c 0 -i 28 -a 0 -x {5.0 0.0 9 ------- null}
h -t 1.45626666666667 -s 3 -d 2 -p ack -e 40 -c 0 -i 28 -a 0 -x {5.0 0.0 -1 ------- null}
- -t 1.45730666666667 -s 2 -d 3 -p tcp -e 1040 -c 0 -i 17 -a 0 -x {0.0 5.0 11 ------- null}
h -t 1.45730666666667 -s 2 -d 3 -p tcp -e 1040 -c 0 -i 17 -a 0 -x {0.0 5.0 -1 ------- null}
r -t 1.46706666666667 -s 3 -d 2 -p ack -e 40 -c 0 -i 28 -a 0 -x {5.0 0.0 9 ------- null}
+ -t 1.46706666666667 -s 2 -d 0 -p ack -e 40 -c 0 -i 28 -a 0 -x {5.0 0.0 9 ------- null}
- -t 1.46706666666667 -s 2 -d 0 -p ack -e 40 -c 0 -i 28 -a 0 -x {5.0 0.0 9 ------- null}
h -t 1.46706666666667 -s 2 -d 0 -p ack -e 40 -c 0 -i 28 -a 0 -x {5.0 0.0 -1 ------- null}
r -t 1.46730666666667 -s 2 -d 3 -p tcp -e 1040 -c 0 -i 15 -a 0 -x {0.0 5.0 10 ------- null}
+ -t 1.46730666666667 -s 3 -d 5 -p tcp -e 1040 -c 0 -i 15 -a 0 -x {0.0 5.0 10 ------- null}
- -t 1.46730666666667 -s 3 -d 5 -p tcp -e 1040 -c 0 -i 15 -a 0 -x {0.0 5.0 10 ------- null}
h -t 1.46730666666667 -s 3 -d 5 -p tcp -e 1040 -c 0 -i 15 -a 0 -x {0.0 5.0 -1 ------- null}
r -t 1.46913066666667 -s 2 -d 0 -p ack -e 40 -c 0 -i 28 -a 0 -x {5.0 0.0 9 ------- null}
+ -t 1.46913066666667 -s 0 -d 2 -p tcp -e 1040 -c 0 -i 29 -a 0 -x {0.0 5.0 19 ------- null}
- -t 1.46913066666667 -s 0 -d 2 -p tcp -e 1040 -c 0 -i 29 -a 0 -x {0.0 5.0 19 ------- null}
h -t 1.46913066666667 -s 0 -d 2 -p tcp -e 1040 -c 0 -i 29 -a 0 -x {0.0 5.0 -1 ------- null}
+ -t 1.46913066666667 -s 0 -d 2 -p tcp -e 1040 -c 0 -i 30 -a 0 -x {0.0 5.0 20 ------- null}
- -t 1.47079466666667 -s 0 -d 2 -p tcp -e 1040 -c 0 -i 30 -a 0 -x {0.0 5.0 20 ------- null}
h -t 1.47079466666667 -s 0 -d 2 -p tcp -e 1040 -c 0 -i 30 -a 0 -x {0.0 5.0 -1 ------- null}
r -t 1.47279466666667 -s 0 -d 2 -p tcp -e 1040 -c 0 -i 29 -a 0 -x {0.0 5.0 19 ------- null}
+ -t 1.47279466666667 -s 2 -d 3 -p tcp -e 1040 -c 0 -i 29 -a 0 -x {0.0 5.0 19 ------- null}
r -t 1.47445866666667 -s 0 -d 2 -p tcp -e 1040 -c 0 -i 30 -a 0 -x {0.0 5.0 20 ------- null}
+ -t 1.47445866666667 -s 2 -d 3 -p tcp -e 1040 -c 0 -i 30 -a 0 -x {0.0 5.0 20 ------- null}
r -t 1.47485333333333 -s 3 -d 5 -p tcp -e 1040 -c 0 -i 15 -a 0 -x {0.0 5.0 10 ------- null}
+ -t 1.47485333333333 -s 5 -d 3 -p ack -e 40 -c 0 -i 31 -a 0 -x {5.0 0.0 10 ------- null}
- -t 1.47485333333333 -s 5 -d 3 -p ack -e 40 -c 0 -i 31 -a 0 -x {5.0 0.0 10 ------- null}
h -t 1.47485333333333 -s 5 -d 3 -p ack -e 40 -c 0 -i 31 -a 0 -x {5.0 0.0 -1 ------- null}
r -t 1.47706666666667 -s 5 -d 3 -p ack -e 40 -c 0 -i 31 -a 0 -x {5.0 0.0 10 ------- null}
+ -t 1.47706666666667 -s 3 -d 2 -p ack -e 40 -c 0 -i 31 -a 0 -x {5.0 0.0 10 ------- null}
- -t 1.47706666666667 -s 3 -d 2 -p ack -e 40 -c 0 -i 31 -a 0 -x {5.0 0.0 10 ------- null}
h -t 1.47706666666667 -s 3 -d 2 -p ack -e 40 -c 0 -i 31 -a 0 -x {5.0 0.0 -1 ------- null}
- -t 1.47810666666667 -s 2 -d 3 -p tcp -e 1040 -c 0 -i 18 -a 0 -x {0.0 5.0 12 ------- null}
h -t 1.47810666666667 -s 2 -d 3 -p tcp -e 1040 -c 0 -i 18 -a 0 -x {0.0 5.0 -1 ------- null}
r -t 1.48786666666667 -s 3 -d 2 -p ack -e 40 -c 0 -i 31 -a 0 -x {5.0 0.0 10 ------- null}
+ -t 1.48786666666667 -s 2 -d 0 -p ack -e 40 -c 0 -i 31 -a 0 -x {5.0 0.0 10 ------- null}
- -t 1.48786666666667 -s 2 -d 0 -p ack -e 40 -c 0 -i 31 -a 0 -x {5.0 0.0 10 ------- null}
h -t 1.48786666666667 -s 2 -d 0 -p ack -e 40 -c 0 -i 31 -a 0 -x {5.0 0.0 -1 ------- null}
r -t 1.48810666666667 -s 2 -d 3 -p tcp -e 1040 -c 0 -i 17 -a 0 -x {0.0 5.0 11 ------- null}
+ -t 1.48810666666667 -s 3 -d 5 -p tcp -e 1040 -c 0 -i 17 -a 0 -x {0.0 5.0 11 ------- null}
- -t 1.48810666666667 -s 3 -d 5 -p tcp -e 1040 -c 0 -i 17 -a 0 -x {0.0 5.0 11 ------- null}
h -t 1.48810666666667 -s 3 -d 5 -p tcp -e 1040 -c 0 -i 17 -a 0 -x {0.0 5.0 -1 ------- null}
r -t 1.48993066666667 -s 2 -d 0 -p ack -e 40 -c 0 -i 31 -a 0 -x {5.0 0.0 10 ------- null}
+ -t 1.48993066666667 -s 0 -d 2 -p tcp -e 1040 -c 0 -i 32 -a 0 -x {0.0 5.0 21 ------- null}
- -t 1.48993066666667 -s 0 -d 2 -p tcp -e 1040 -c 0 -i 32 -a 0 -x {0.0 5.0 21 ------- null}
h -t 1.48993066666667 -s 0 -d 2 -p tcp -e 1040 -c 0 -i 32 -a 0 -x {0.0 5.0 -1 ------- null}
+ -t 1.48993066666667 -s 0 -d 2 -p tcp -e 1040 -c 0 -i 33 -a 0 -x {0.0 5.0 22 ------- null}