+ 1.2 0 2 tcp 40 ------- 0 0.0 5.0 0 0
- 1.2 0 2 tcp 40 ------- 0 0.0 5.0 0 0
r 1.202064 0 2 tcp 40 ------- 0 0.0 5.0 0 0
+ 1.202064 2 3 tcp 40 ------- 0 0.0 5.0 0 0
- 1.202064 2 3 tcp 40 ------- 0 0.0 5.0 0 0
r 1.212864 2 3 tcp 40 ------- 0 0.0 5.0 0 0
+ 1.212864 3 5 tcp 40 ------- 0 0.0 5.0 0 0
- 1.212864 3 5 tcp 40 ------- 0 0.0 5.0 0 0
r 1.215077 3 5 tcp 40 ------- 0 0.0 5.0 0 0
+ 1.215077 5 3 ack 40 ------- 0 5.0 0.0 0 1
- 1.215077 5 3 ack 40 ------- 0 5.0 0.0 0 1
r 1.217291 5 3 ack 40 ------- 0 5.0 0.0 0 1
+ 1.217291 3 2 ack 40 ------- 0 5.0 0.0 0 1
- 1.217291 3 2 ack 40 ------- 0 5.0 0.0 0 1
r 1.228091 3 2 ack 40 ------- 0 5.0 0.0 0 1
+ 1.228091 2 0 ack 40 ------- 0 5.0 0.0 0 1
- 1.228091 2 0 ack 40 ------- 0 5.0 0.0 0 1
r 1.230155 2 0 ack 40 ------- 0 5.0 0.0 0 1
+ 1.230155 0 2 tcp 1040 ------- 0 0.0 5.0 1 2
- 1.230155 0 2 tcp 1040 ------- 0 0.0 5.0 1 2
+ 1.230155 0 2 tcp 1040 ------- 0 0.0 5.0 2 3
- 1.231819 0 2 tcp 1040 ------- 0 0.0 5.0 2 3
r 1.233819 0 2 tcp 1040 ------- 0 0.0 5.0 1 2
+ 1.233819 2 3 tcp 1040 ------- 0 0.0 5.0 1 2
- 1.233819 2 3 tcp 1040 ------- 0 0.0 5.0 1 2
r 1.235483 0 2 tcp 1040 ------- 0 0.0 5.0 2 3
+ 1.235483 2 3 tcp 1040 ------- 0 0.0 5.0 2 3
- 1.254619 2 3 tcp 1040 ------- 0 0.0 5.0 2 3
r 1.264619 2 3 tcp 1040 ------- 0 0.0 5.0 1 2
+ 1.264619 3 5 tcp 1040 ------- 0 0.0 5.0 1 2
- 1.264619 3 5 tcp 1040 ------- 0 0.0 5.0 1 2
r 1.272165 3 5 tcp 1040 ------- 0 0.0 5.0 1 2
+ 1.272165 5 3 ack 40 ------- 0 5.0 0.0 1 4
- 1.272165 5 3 ack 40 ------- 0 5.0 0.0 1 4
r 1.274379 5 3 ack 40 ------- 0 5.0 0.0 1 4
+ 1.274379 3 2 ack 40 ------- 0 5.0 0.0 1 4
- 1.274379 3 2 ack 40 ------- 0 5.0 0.0 1 4
r 1.285179 3 2 ack 40 ------- 0 5.0 0.0 1 4
+ 1.285179 2 0 ack 40 ------- 0 5.0 0.0 1 4
- 1.285179 2 0 ack 40 ------- 0 5.0 0.0 1 4
r 1.285419 2 3 tcp 1040 ------- 0 0.0 5.0 2 3
+ 1.285419 3 5 tcp 1040 ------- 0 0.0 5.0 2 3
- 1.285419 3 5 tcp 1040 ------- 0 0.0 5.0 2 3
r 1.287243 2 0 ack 40 ------- 0 5.0 0.0 1 4
+ 1.287243 0 2 tcp 1040 ------- 0 0.0 5.0 3 5
- 1.287243 0 2 tcp 1040 ------- 0 0.0 5.0 3 5
+ 1.287243 0 2 tcp 1040 ------- 0 0.0 5.0 4 6
- 1.288907 0 2 tcp 1040 ------- 0 0.0 5.0 4 6
r 1.290907 0 2 tcp 1040 ------- 0 0.0 5.0 3 5
+ 1.290907 2 3 tcp 1040 ------- 0 0.0 5.0 3 5
- 1.290907 2 3 tcp 1040 ------- 0 0.0 5.0 3 5
r 1.292571 0 2 tcp 1040 ------- 0 0.0 5.0 4 6
+ 1.292571 2 3 tcp 1040 ------- 0 0.0 5.0 4 6
r 1.292965 3 5 tcp 1040 ------- 0 0.0 5.0 2 3
+ 1.292965 5 3 ack 40 ------- 0 5.0 0.0 2 7
- 1.292965 5 3 ack 40 ------- 0 5.0 0.0 2 7
r 1.295179 5 3 ack 40 ------- 0 5.0 0.0 2 7
+ 1.295179 3 2 ack 40 ------- 0 5.0 0.0 2 7
- 1.295179 3 2 ack 40 ------- 0 5.0 0.0 2 7
r 1.305979 3 2 ack 40 ------- 0 5.0 0.0 2 7
+ 1.305979 2 0 ack 40 ------- 0 5.0 0.0 2 7
- 1.305979 2 0 ack 40 ------- 0 5.0 0.0 2 7
r 1.308043 2 0 ack 40 ------- 0 5.0 0.0 2 7
+ 1.308043 0 2 tcp 1040 ------- 0 0.0 5.0 5 8
- 1.308043 0 2 tcp 1040 ------- 0 0.0 5.0 5 8
+ 1.308043 0 2 tcp 1040 ------- 0 0.0 5.0 6 9
- 1.309707 0 2 tcp 1040 ------- 0 0.0 5.0 6 9
- 1.311707 2 3 tcp 1040 ------- 0 0.0 5.0 4 6
r 1.311707 0 2 tcp 1040 ------- 0 0.0 5.0 5 8
+ 1.311707 2 3 tcp 1040 ------- 0 0.0 5.0 5 8
r 1.313371 0 2 tcp 1040 ------- 0 0.0 5.0 6 9
+ 1.313371 2 3 tcp 1040 ------- 0 0.0 5.0 6 9
r 1.321707 2 3 tcp 1040 ------- 0 0.0 5.0 3 5
+ 1.321707 3 5 tcp 1040 ------- 0 0.0 5.0 3 5
- 1.321707 3 5 tcp 1040 ------- 0 0.0 5.0 3 5
r 1.329253 3 5 tcp 1040 ------- 0 0.0 5.0 3 5
+ 1.329253 5 3 ack 40 ------- 0 5.0 0.0 3 10
- 1.329253 5 3 ack 40 ------- 0 5.0 0.0 3 10
r 1.331467 5 3 ack 40 ------- 0 5.0 0.0 3 10
+ 1.331467 3 2 ack 40 ------- 0 5.0 0.0 3 10
- 1.331467 3 2 ack 40 ------- 0 5.0 0.0 3 10
- 1.332507 2 3 tcp 1040 ------- 0 0.0 5.0 5 8
r 1.342267 3 2 ack 40 ------- 0 5.0 0.0 3 10
+ 1.342267 2 0 ack 40 ------- 0 5.0 0.0 3 10
- 1.342267 2 0 ack 40 ------- 0 5.0 0.0 3 10
r 1.342507 2 3 tcp 1040 ------- 0 0.0 5.0 4 6
+ 1.342507 3 5 tcp 1040 ------- 0 0.0 5.0 4 6
- 1.342507 3 5 tcp 1040 ------- 0 0.0 5.0 4 6
r 1.344331 2 0 ack 40 ------- 0 5.0 0.0 3 10
+ 1.344331 0 2 tcp 1040 ------- 0 0.0 5.0 7 11
- 1.344331 0 2 tcp 1040 ------- 0 0.0 5.0 7 11
+ 1.344331 0 2 tcp 1040 ------- 0 0.0 5.0 8 12
- 1.345995 0 2 tcp 1040 ------- 0 0.0 5.0 8 12
r 1.347995 0 2 tcp 1040 ------- 0 0.0 5.0 7 11
+ 1.347995 2 3 tcp 1040 ------- 0 0.0 5.0 7 11
r 1.349659 0 2 tcp 1040 ------- 0 0.0 5.0 8 12
+ 1.349659 2 3 tcp 1040 ------- 0 0.0 5.0 8 12
r 1.350053 3 5 tcp 1040 ------- 0 0.0 5.0 4 6
+ 1.350053 5 3 ack 40 ------- 0 5.0 0.0 4 13
- 1.350053 5 3 ack 40 ------- 0 5.0 0.0 4 13
r 1.352267 5 3 ack 40 ------- 0 5.0 0.0 4 13
+ 1.352267 3 2 ack 40 ------- 0 5.0 0.0 4 13
- 1.352267 3 2 ack 40 ------- 0 5.0 0.0 4 13
- 1.353307 2 3 tcp 1040 ------- 0 0.0 5.0 6 9
r 1.363067 3 2 ack 40 ------- 0 5.0 0.0 4 13
+ 1.363067 2 0 ack 40 ------- 0 5.0 0.0 4 13
- 1.363067 2 0 ack 40 ------- 0 5.0 0.0 4 13
r 1.363307 2 3 tcp 1040 ------- 0 0.0 5.0 5 8
+ 1.363307 3 5 tcp 1040 ------- 0 0.0 5.0 5 8
- 1.363307 3 5 tcp 1040 ------- 0 0.0 5.0 5 8
r 1.365131 2 0 ack 40 ------- 0 5.0 0.0 4 13
+ 1.365131 0 2 tcp 1040 ------- 0 0.0 5.0 9 14
- 1.365131 0 2 tcp 1040 ------- 0 0.0 5.0 9 14
+ 1.365131 0 2 tcp 1040 ------- 0 0.0 5.0 10 15
- 1.366795 0 2 tcp 1040 ------- 0 0.0 5.0 10 15
r 1.368795 0 2 tcp 1040 ------- 0 0.0 5.0 9 14
+ 1.368795 2 3 tcp 1040 ------- 0 0.0 5.0 9 14
r 1.370459 0 2 tcp 1040 ------- 0 0.0 5.0 10 15
+ 1.370459 2 3 tcp 1040 ------- 0 0.0 5.0 10 15
r 1.370853 3 5 tcp 1040 ------- 0 0.0 5.0 5 8
+ 1.370853 5 3 ack 40 ------- 0 5.0 0.0 5 16
- 1.370853 5 3 ack 40 ------- 0 5.0 0.0 5 16
r 1.373067 5 3 ack 40 ------- 0 5.0 0.0 5 16
+ 1.373067 3 2 ack 40 ------- 0 5.0 0.0 5 16
- 1.373067 3 2 ack 40 ------- 0 5.0 0.0 5 16
- 1.374107 2 3 tcp 1040 ------- 0 0.0 5.0 7 11
r 1.383867 3 2 ack 40 ------- 0 5.0 0.0 5 16
+ 1.383867 2 0 ack 40 ------- 0 5.0 0.0 5 16
- 1.383867 2 0 ack 40 ------- 0 5.0 0.0 5 16
r 1.384107 2 3 tcp 1040 ------- 0 0.0 5.0 6 9
+ 1.384107 3 5 tcp 1040 ------- 0 0.0 5.0 6 9
- 1.384107 3 5 tcp 1040 ------- 0 0.0 5.0 6 9
r 1.385931 2 0 ack 40 ------- 0 5.0 0.0 5 16
+ 1.385931 0 2 tcp 1040 ------- 0 0.0 5.0 11 17
- 1.385931 0 2 tcp 1040 ------- 0 0.0 5.0 11 17
+ 1.385931 0 2 tcp 1040 ------- 0 0.0 5.0 12 18
- 1.387595 0 2 tcp 1040 ------- 0 0.0 5.0 12 18
r 1.389595 0 2 tcp 1040 ------- 0 0.0 5.0 11 17
+ 1.389595 2 3 tcp 1040 ------- 0 0.0 5.0 11 17
r 1.391259 0 2 tcp 1040 ------- 0 0.0 5.0 12 18
+ 1.391259 2 3 tcp 1040 ------- 0 0.0 5.0 12 18
r 1.391653 3 5 tcp 1040 ------- 0 0.0 5.0 6 9
+ 1.391653 5 3 ack 40 ------- 0 5.0 0.0 6 19
- 1.391653 5 3 ack 40 ------- 0 5.0 0.0 6 19
r 1.393867 5 3 ack 40 ------- 0 5.0 0.0 6 19
+ 1.393867 3 2 ack 40 ------- 0 5.0 0.0 6 19
- 1.393867 3 2 ack 40 ------- 0 5.0 0.0 6 19
- 1.394907 2 3 tcp 1040 ------- 0 0.0 5.0 8 12
r 1.404667 3 2 ack 40 ------- 0 5.0 0.0 6 19
+ 1.404667 2 0 ack 40 ------- 0 5.0 0.0 6 19
- 1.404667 2 0 ack 40 ------- 0 5.0 0.0 6 19
r 1.404907 2 3 tcp 1040 ------- 0 0.0 5.0 7 11
+ 1.404907 3 5 tcp 1040 ------- 0 0.0 5.0 7 11
- 1.404907 3 5 tcp 1040 ------- 0 0.0 5.0 7 11
r 1.406731 2 0 ack 40 ------- 0 5.0 0.0 6 19
+ 1.406731 0 2 tcp 1040 ------- 0 0.0 5.0 13 20
- 1.406731 0 2 tcp 1040 ------- 0 0.0 5.0 13 20
+ 1.406731 0 2 tcp 1040 ------- 0 0.0 5.0 14 21
- 1.408395 0 2 tcp 1040 ------- 0 0.0 5.0 14 21
r 1.410395 0 2 tcp 1040 ------- 0 0.0 5.0 13 20
+ 1.410395 2 3 tcp 1040 ------- 0 0.0 5.0 13 20
r 1.412059 0 2 tcp 1040 ------- 0 0.0 5.0 14 21
+ 1.412059 2 3 tcp 1040 ------- 0 0.0 5.0 14 21
r 1.412453 3 5 tcp 1040 ------- 0 0.0 5.0 7 11
+ 1.412453 5 3 ack 40 ------- 0 5.0 0.0 7 22
- 1.412453 5 3 ack 40 ------- 0 5.0 0.0 7 22
r 1.414667 5 3 ack 40 ------- 0 5.0 0.0 7 22
+ 1.414667 3 2 ack 40 ------- 0 5.0 0.0 7 22
- 1.414667 3 2 ack 40 ------- 0 5.0 0.0 7 22
- 1.415707 2 3 tcp 1040 ------- 0 0.0 5.0 9 14
r 1.425467 3 2 ack 40 ------- 0 5.0 0.0 7 22
+ 1.425467 2 0 ack 40 ------- 0 5.0 0.0 7 22
- 1.425467 2 0 ack 40 ------- 0 5.0 0.0 7 22
r 1.425707 2 3 tcp 1040 ------- 0 0.0 5.0 8 12
+ 1.425707 3 5 tcp 1040 ------- 0 0.0 5.0 8 12
- 1.425707 3 5 tcp 1040 ------- 0 0.0 5.0 8 12
r 1.427531 2 0 ack 40 ------- 0 5.0 0.0 7 22
+ 1.427531 0 2 tcp 1040 ------- 0 0.0 5.0 15 23
- 1.427531 0 2 tcp 1040 ------- 0 0.0 5.0 15 23
+ 1.427531 0 2 tcp 1040 ------- 0 0.0 5.0 16 24
- 1.429195 0 2 tcp 1040 ------- 0 0.0 5.0 16 24
r 1.431195 0 2 tcp 1040 ------- 0 0.0 5.0 15 23
+ 1.431195 2 3 tcp 1040 ------- 0 0.0 5.0 15 23
r 1.432859 0 2 tcp 1040 ------- 0 0.0 5.0 16 24
+ 1.432859 2 3 tcp 1040 ------- 0 0.0 5.0 16 24
r 1.433253 3 5 tcp 1040 ------- 0 0.0 5.0 8 12
+ 1.433253 5 3 ack 40 ------- 0 5.0 0.0 8 25
- 1.433253 5 3 ack 40 ------- 0 5.0 0.0 8 25
r 1.435467 5 3 ack 40 ------- 0 5.0 0.0 8 25
+ 1.435467 3 2 ack 40 ------- 0 5.0 0.0 8 25
- 1.435467 3 2 ack 40 ------- 0 5.0 0.0 8 25
- 1.436507 2 3 tcp 1040 ------- 0 0.0 5.0 10 15
r 1.446267 3 2 ack 40 ------- 0 5.0 0.0 8 25
+ 1.446267 2 0 ack 40 ------- 0 5.0 0.0 8 25
- 1.446267 2 0 ack 40 ------- 0 5.0 0.0 8 25
r 1.446507 2 3 tcp 1040 ------- 0 0.0 5.0 9 14
+ 1.446507 3 5 tcp 1040 ------- 0 0.0 5.0 9 14
- 1.446507 3 5 tcp 1040 ------- 0 0.0 5.0 9 14
r 1.448331 2 0 ack 40 ------- 0 5.0 0.0 8 25
+ 1.448331 0 2 tcp 1040 ------- 0 0.0 5.0 17 26
- 1.448331 0 2 tcp 1040 ------- 0 0.0 5.0 17 26
+ 1.448331 0 2 tcp 1040 ------- 0 0.0 5.0 18 27
- 1.449995 0 2 tcp 1040 ------- 0 0.0 5.0 18 27
r 1.451995 0 2 tcp 1040 ------- 0 0.0 5.0 17 26
+ 1.451995 2 3 tcp 1040 ------- 0 0.0 5.0 17 26
r 1.453659 0 2 tcp 1040 ------- 0 0.0 5.0 18 27
+ 1.453659 2 3 tcp 1040 ------- 0 0.0 5.0 18 27
r 1.454053 3 5 tcp 1040 ------- 0 0.0 5.0 9 14
+ 1.454053 5 3 ack 40 ------- 0 5.0 0.0 9 28
- 1.454053 5 3 ack 40 ------- 0 5.0 0.0 9 28
r 1.456267 5 3 ack 40 ------- 0 5.0 0.0 9 28
+ 1.456267 3 2 ack 40 ------- 0 5.0 0.0 9 28
- 1.456267 3 2 ack 40 ------- 0 5.0 0.0 9 28
- 1.457307 2 3 tcp 1040 ------- 0 0.0 5.0 11 17
r 1.467067 3 2 ack 40 ------- 0 5.0 0.0 9 28
+ 1.467067 2 0 ack 40 ------- 0 5.0 0.0 9 28
- 1.467067 2 0 ack 40 ------- 0 5.0 0.0 9 28
r 1.467307 2 3 tcp 1040 ------- 0 0.0 5.0 10 15
+ 1.467307 3 5 tcp 1040 ------- 0 0.0 5.0 10 15
- 1.467307 3 5 tcp 1040 ------- 0 0.0 5.0 10 15
r 1.469131 2 0 ack 40 ------- 0 5.0 0.0 9 28
+ 1.469131 0 2 tcp 1040 ------- 0 0.0 5.0 19 29
- 1.469131 0 2 tcp 1040 ------- 0 0.0 5.0 19 29
+ 1.469131 0 2 tcp 1040 ------- 0 0.0 5.0 20 30
- 1.470795 0 2 tcp 1040 ------- 0 0.0 5.0 20 30
r 1.472795 0 2 tcp 1040 ------- 0 0.0 5.0 19 29
+ 1.472795 2 3 tcp 1040 ------- 0 0.0 5.0 19 29
r 1.474459 0 2 tcp 1040 ------- 0 0.0 5.0 20 30
+ 1.474459 2 3 tcp 1040 ------- 0 0.0 5.0 20 30
r 1.474853 3 5 tcp 1040 ------- 0 0.0 5.0 10 15
+ 1.474853 5 3 ack 40 ------- 0 5.0 0.0 10 31
- 1.474853 5 3 ack 40 ------- 0 5.0 0.0 10 31
r 1.477067 5 3 ack 40 ------- 0 5.0 0.0 10 31
+ 1.477067 3 2 ack 40 ------- 0 5.0 0.0 10 31
- 1.477067 3 2 ack 40 ------- 0 5.0 0.0 10 31
- 1.478107 2 3 tcp 1040 ------- 0 0.0 5.0 12 18
r 1.487867 3 2 ack 40 ------- 0 5.0 0.0 10 31
+ 1.487867 2 0 ack 40 ------- 0 5.0 0.0 10 31
- 1.487867 2 0 ack 40 ------- 0 5.0 0.0 10 31
r 1.488107 2 3 tcp 1040 ------- 0 0.0 5.0 11 17
+ 1.488107 3 5 tcp 1040 ------- 0 0.0 5.0 11 17
- 1.488107 3 5 tcp 1040 ------- 0 0.0 5.0 11 17
r 1.489931 2 0 ack 40 ------- 0 5.0 0.0 10 31
+ 1.489931 0 2 tcp 1040 ------- 0 0.0 5.0 21 32
- 1.489931 0 2 tcp 1040 ------- 0 0.0 5.0 21 32
+ 1.489931 0 2 tcp 1040 ------- 0 0.0 5.0 22 33
- 1.491595 0 2 tcp 1040 ------- 0 0.0 5.0 22 33
r 1.493595 0 2 tcp 1040 ------- 0 0.0 5.0 21 32
+ 1.493595 2 3 tcp 1040 ------- 0 0.0 5.0 21 32
r 1.495259 0 2 tcp 1040 ------- 0 0.0 5.0 22 33
+ 1.495259 2 3 tcp 1040 ------- 0 0.0 5.0 22 33
d 1.495259 2 3 tcp 1040 ------- 0 0.0 5.0 22 33
r 1.495653 3 5 tcp 1040 ------- 0 0.0 5.0 11 17
+ 1.495653 5 3 ack 40 ------- 0 5.0 0.0 11 34
- 1.495653 5 3 ack 40 ------- 0 5.0 0.0 11 34
r 1.497867 5 3 ack 40 ------- 0 5.0 0.0 11 34
+ 1.497867 3 2 ack 40 ------- 0 5.0 0.0 11 34
- 1.497867 3 2 ack 40 ------- 0 5.0 0.0 11 34
- 1.498907 2 3 tcp 1040 ------- 0 0.0 5.0 13 20
r 1.508667 3 2 ack 40 ------- 0 5.0 0.0 11 34
+ 1.508667 2 0 ack 40 ------- 0 5.0 0.0 11 34
- 1.508667 2 0 ack 40 ------- 0 5.0 0.0 11 34
r 1.508907 2 3 tcp 1040 ------- 0 0.0 5.0 12 18
+ 1.508907 3 5 tcp 1040 ------- 0 0.0 5.0 12 18
- 1.508907 3 5 tcp 1040 ------- 0 0.0 5.0 12 18
r 1.510731 2 0 ack 40 ------- 0 5.0 0.0 11 34
+ 1.510731 0 2 tcp 1040 ------- 0 0.0 5.0 23 35
- 1.510731 0 2 tcp 1040 ------- 0 0.0 5.0 23 35
+ 1.510731 0 2 tcp 1040 ------- 0 0.0 5.0 24 36
- 1.512395 0 2 tcp 1040 ------- 0 0.0 5.0 24 36
r 1.514395 0 2 tcp 1040 ------- 0 0.0 5.0 23 35
+ 1.514395 2 3 tcp 1040 ------- 0 0.0 5.0 23 35
r 1.516059 0 2 tcp 1040 ------- 0 0.0 5.0 24 36
+ 1.516059 2 3 tcp 1040 ------- 0 0.0 5.0 24 36
d 1.516059 2 3 tcp 1040 ------- 0 0.0 5.0 24 36
r 1.516453 3 5 tcp 1040 ------- 0 0.0 5.0 12 18
+ 1.516453 5 3 ack 40 ------- 0 5.0 0.0 12 37
- 1.516453 5 3 ack 40 ------- 0 5.0 0.0 12 37
r 1.518667 5 3 ack 40 ------- 0 5.0 0.0 12 37
+ 1.518667 3 2 ack 40 ------- 0 5.0 0.0 12 37
- 1.518667 3 2 ack 40 ------- 0 5.0 0.0 12 37
- 1.519707 2 3 tcp 1040 ------- 0 0.0 5.0 14 21
r 1.529467 3 2 ack 40 ------- 0 5.0 0.0 12 37
+ 1.529467 2 0 ack 40 ------- 0 5.0 0.0 12 37
- 1.529467 2 0 ack 40 ------- 0 5.0 0.0 12 37
r 1.529707 2 3 tcp 1040 ------- 0 0.0 5.0 13 20
+ 1.529707 3 5 tcp 1040 ------- 0 0.0 5.0 13 20
- 1.529707 3 5 tcp 1040 ------- 0 0.0 5.0 13 20
r 1.531531 2 0 ack 40 ------- 0 5.0 0.0 12 37
+ 1.531531 0 2 tcp 1040 ------- 0 0.0 5.0 25 38
- 1.531531 0 2 tcp 1040 ------- 0 0.0 5.0 25 38
+ 1.531531 0 2 tcp 1040 ------- 0 0.0 5.0 26 39
- 1.533195 0 2 tcp 1040 ------- 0 0.0 5.0 26 39
r 1.535195 0 2 tcp 1040 ------- 0 0.0 5.0 25 38
+ 1.535195 2 3 tcp 1040 ------- 0 0.0 5.0 25 38
r 1.536859 0 2 tcp 1040 ------- 0 0.0 5.0 26 39
+ 1.536859 2 3 tcp 1040 ------- 0 0.0 5.0 26 39
d 1.536859 2 3 tcp 1040 ------- 0 0.0 5.0 26 39
r 1.537253 3 5 tcp 1040 ------- 0 0.0 5.0 13 20
+ 1.537253 5 3 ack 40 ------- 0 5.0 0.0 13 40
- 1.537253 5 3 ack 40 ------- 0 5.0 0.0 13 40
r 1.539467 5 3 ack 40 ------- 0 5.0 0.0 13 40
+ 1.539467 3 2 ack 40 ------- 0 5.0 0.0 13 40
- 1.539467 3 2 ack 40 ------- 0 5.0 0.0 13 40
- 1.540507 2 3 tcp 1040 ------- 0 0.0 5.0 15 23
r 1.550267 3 2 ack 40 ------- 0 5.0 0.0 13 40
+ 1.550267 2 0 ack 40 ------- 0 5.0 0.0 13 40
- 1.550267 2 0 ack 40 ------- 0 5.0 0.0 13 40
r 1.550507 2 3 tcp 1040 ------- 0 0.0 5.0 14 21
+ 1.550507 3 5 tcp 1040 ------- 0 0.0 5.0 14 21
- 1.550507 3 5 tcp 1040 ------- 0 0.0 5.0 14 21
r 1.552331 2 0 ack 40 ------- 0 5.0 0.0 13 40
+ 1.552331 0 2 tcp 1040 ------- 0 0.0 5.0 27 41
- 1.552331 0 2 tcp 1040 ------- 0 0.0 5.0 27 41
+ 1.552331 0 2 tcp 1040 ------- 0 0.0 5.0 28 42
- 1.553995 0 2 tcp 1040 ------- 0 0.0 5.0 28 42
r 1.555995 0 2 tcp 1040 ------- 0 0.0 5.0 27 41
+ 1.555995 2 3 tcp 1040 ------- 0 0.0 5.0 27 41
r 1.557659 0 2 tcp 1040 ------- 0 0.0 5.0 28 42
+ 1.557659 2 3 tcp 1040 ------- 0 0.0 5.0 28 42
d 1.557659 2 3 tcp 1040 ------- 0 0.0 5.0 28 42
r 1.558053 3 5 tcp 1040 ------- 0 0.0 5.0 14 21
+ 1.558053 5 3 ack 40 ------- 0 5.0 0.0 14 43
- 1.558053 5 3 ack 40 ------- 0 5.0 0.0 14 43
r 1.560267 5 3 ack 40 ------- 0 5.0 0.0 14 43
+ 1.560267 3 2 ack 40 ------- 0 5.0 0.0 14 43
- 1.560267 3 2 ack 40 ------- 0 5.0 0.0 14 43
- 1.561307 2 3 tcp 1040 ------- 0 0.0 5.0 16 24
r 1.571067 3 2 ack 40 ------- 0 5.0 0.0 14 43
+ 1.571067 2 0 ack 40 ------- 0 5.0 0.0 14 43
- 1.571067 2 0 ack 40 ------- 0 5.0 0.0 14 43
r 1.571307 2 3 tcp 1040 ------- 0 0.0 5.0 15 23
+ 1.571307 3 5 tcp 1040 ------- 0 0.0 5.0 15 23
- 1.571307 3 5 tcp 1040 ------- 0 0.0 5.0 15 23
r 1.573131 2 0 ack 40 ------- 0 5.0 0.0 14 43
+ 1.573131 0 2 tcp 1040 ------- 0 0.0 5.0 29 44
- 1.573131 0 2 tcp 1040 ------- 0 0.0 5.0 29 44
+ 1.573131 0 2 tcp 1040 ------- 0 0.0 5.0 30 45
- 1.574795 0 2 tcp 1040 ------- 0 0.0 5.0 30 45
r 1.576795 0 2 tcp 1040 ------- 0 0.0 5.0 29 44
+ 1.576795 2 3 tcp 1040 ------- 0 0.0 5.0 29 44
r 1.578459 0 2 tcp 1040 ------- 0 0.0 5.0 30 45
+ 1.578459 2 3 tcp 1040 ------- 0 0.0 5.0 30 45
d 1.578459 2 3 tcp 1040 ------- 0 0.0 5.0 30 45
r 1.578853 3 5 tcp 1040 ------- 0 0.0 5.0 15 23
+ 1.578853 5 3 ack 40 ------- 0 5.0 0.0 15 46
- 1.578853 5 3 ack 40 ------- 0 5.0 0.0 15 46
r 1.581067 5 3 ack 40 ------- 0 5.0 0.0 15 46
+ 1.581067 3 2 ack 40 ------- 0 5.0 0.0 15 46
- 1.581067 3 2 ack 40 ------- 0 5.0 0.0 15 46
- 1.582107 2 3 tcp 1040 ------- 0 0.0 5.0 17 26
r 1.591867 3 2 ack 40 ------- 0 5.0 0.0 15 46
+ 1.591867 2 0 ack 40 ------- 0 5.0 0.0 15 46
- 1.591867 2 0 ack 40 ------- 0 5.0 0.0 15 46
r 1.592107 2 3 tcp 1040 ------- 0 0.0 5.0 16 24
+ 1.592107 3 5 tcp 1040 ------- 0 0.0 5.0 16 24
- 1.592107 3 5 tcp 1040 ------- 0 0.0 5.0 16 24
r 1.593931 2 0 ack 40 ------- 0 5.0 0.0 15 46
+ 1.593931 0 2 tcp 1040 ------- 0 0.0 5.0 31 47
- 1.593931 0 2 tcp 1040 ------- 0 0.0 5.0 31 47
+ 1.593931 0 2 tcp 1040 ------- 0 0.0 5.0 32 48
- 1.595595 0 2 tcp 1040 ------- 0 0.0 5.0 32 48
r 1.597595 0 2 tcp 1040 ------- 0 0.0 5.0 31 47
+ 1.597595 2 3 tcp 1040 ------- 0 0.0 5.0 31 47
r 1.599259 0 2 tcp 1040 ------- 0 0.0 5.0 32 48
+ 1.599259 2 3 tcp 1040 ------- 0 0.0 5.0 32 48
d 1.599259 2 3 tcp 1040 ------- 0 0.0 5.0 32 48
r 1.599653 3 5 tcp 1040 ------- 0 0.0 5.0 16 24
+ 1.599653 5 3 ack 40 ------- 0 5.0 0.0 16 49
- 1.599653 5 3 ack 40 ------- 0 5.0 0.0 16 49
r 1.601867 5 3 ack 40 ------- 0 5.0 0.0 16 49
+ 1.601867 3 2 ack 40 ------- 0 5.0 0.0 16 49
- 1.601867 3 2 ack 40 ------- 0 5.0 0.0 16 49
- 1.602907 2 3 tcp 1040 ------- 0 0.0 5.0 18 27
r 1.612667 3 2 ack 40 ------- 0 5.0 0.0 16 49
+ 1.612667 2 0 ack 40 ------- 0 5.0 0.0 16 49
- 1.612667 2 0 ack 40 ------- 0 5.0 0.0 16 49
r 1.612907 2 3 tcp 1040 ------- 0 0.0 5.0 17 26
+ 1.612907 3 5 tcp 1040 ------- 0 0.0 5.0 17 26
- 1.612907 3 5 tcp 1040 ------- 0 0.0 5.0 17 26
r 1.614731 2 0 ack 40 ------- 0 5.0 0.0 16 49
+ 1.614731 0 2 tcp 1040 ------- 0 0.0 5.0 33 50
- 1.614731 0 2 tcp 1040 ------- 0 0.0 5.0 33 50
+ 1.614731 0 2 tcp 1040 ------- 0 0.0 5.0 34 51
- 1.616395 0 2 tcp 1040 ------- 0 0.0 5.0 34 51
r 1.618395 0 2 tcp 1040 ------- 0 0.0 5.0 33 50
+ 1.618395 2 3 tcp 1040 ------- 0 0.0 5.0 33 50
r 1.620059 0 2 tcp 1040 ------- 0 0.0 5.0 34 51
+ 1.620059 2 3 tcp 1040 ------- 0 0.0 5.0 34 51
d 1.620059 2 3 tcp 1040 ------- 0 0.0 5.0 34 51
r 1.620453 3 5 tcp 1040 ------- 0 0.0 5.0 17 26
+ 1.620453 5 3 ack 40 ------- 0 5.0 0.0 17 52
- 1.620453 5 3 ack 40 ------- 0 5.0 0.0 17 52
r 1.622667 5 3 ack 40 ------- 0 5.0 0.0 17 52
+ 1.622667 3 2 ack 40 ------- 0 5.0 0.0 17 52
- 1.622667 3 2 ack 40 ------- 0 5.0 0.0 17 52
- 1.623707 2 3 tcp 1040 ------- 0 0.0 5.0 19 29
r 1.633467 3 2 ack 40 ------- 0 5.0 0.0 17 52
+ 1.633467 2 0 ack 40 ------- 0 5.0 0.0 17 52
- 1.633467 2 0 ack 40 ------- 0 5.0 0.0 17 52
r 1.633707 2 3 tcp 1040 ------- 0 0.0 5.0 18 27
+ 1.633707 3 5 tcp 1040 ------- 0 0.0 5.0 18 27
- 1.633707 3 5 tcp 1040 ------- 0 0.0 5.0 18 27
r 1.635531 2 0 ack 40 ------- 0 5.0 0.0 17 52
+ 1.635531 0 2 tcp 1040 ------- 0 0.0 5.0 35 53
- 1.635531 0 2 tcp 1040 ------- 0 0.0 5.0 35 53
+ 1.635531 0 2 tcp 1040 ------- 0 0.0 5.0 36 54
- 1.637195 0 2 tcp 1040 ------- 0 0.0 5.0 36 54
r 1.639195 0 2 tcp 1040 ------- 0 0.0 5.0 35 53
+ 1.639195 2 3 tcp 1040 ------- 0 0.0 5.0 35 53
r 1.640859 0 2 tcp 1040 ------- 0 0.0 5.0 36 54
+ 1.640859 2 3 tcp 1040 ------- 0 0.0 5.0 36 54
d 1.640859 2 3 tcp 1040 ------- 0 0.0 5.0 36 54
r 1.641253 3 5 tcp 1040 ------- 0 0.0 5.0 18 27
+ 1.641253 5 3 ack 40 ------- 0 5.0 0.0 18 55
- 1.641253 5 3 ack 40 ------- 0 5.0 0.0 18 55
r 1.643467 5 3 ack 40 ------- 0 5.0 0.0 18 55
+ 1.643467 3 2 ack 40 ------- 0 5.0 0.0 18 55
- 1.643467 3 2 ack 40 ------- 0 5.0 0.0 18 55
- 1.644507 2 3 tcp 1040 ------- 0 0.0 5.0 20 30
r 1.654267 3 2 ack 40 ------- 0 5.0 0.0 18 55
+ 1.654267 2 0 ack 40 ------- 0 5.0 0.0 18 55
- 1.654267 2 0 ack 40 ------- 0 5.0 0.0 18 55
r 1.654507 2 3 tcp 1040 ------- 0 0.0 5.0 19 29
+ 1.654507 3 5 tcp 1040 ------- 0 0.0 5.0 19 29
- 1.654507 3 5 tcp 1040 ------- 0 0.0 5.0 19 29
r 1.656331 2 0 ack 40 ------- 0 5.0 0.0 18 55
+ 1.656331 0 2 tcp 1040 ------- 0 0.0 5.0 37 56
- 1.656331 0 2 tcp 1040 ------- 0 0.0 5.0 37 56
+ 1.656331 0 2 tcp 1040 ------- 0 0.0 5.0 38 57
- 1.657995 0 2 tcp 1040 ------- 0 0.0 5.0 38 57
r 1.659995 0 2 tcp 1040 ------- 0 0.0 5.0 37 56
+ 1.659995 2 3 tcp 1040 ------- 0 0.0 5.0 37 56
r 1.661659 0 2 tcp 1040 ------- 0 0.0 5.0 38 57
+ 1.661659 2 3 tcp 1040 ------- 0 0.0 5.0 38 57
d 1.661659 2 3 tcp 1040 ------- 0 0.0 5.0 38 57
r 1.662053 3 5 tcp 1040 ------- 0 0.0 5.0 19 29
+ 1.662053 5 3 ack 40 ------- 0 5.0 0.0 19 58
- 1.662053 5 3 ack 40 ------- 0 5.0 0.0 19 58
r 1.664267 5 3 ack 40 ------- 0 5.0 0.0 19 58
+ 1.664267 3 2 ack 40 ------- 0 5.0 0.0 19 58
- 1.664267 3 2 ack 40 ------- 0 5.0 0.0 19 58
- 1.665307 2 3 tcp 1040 ------- 0 0.0 5.0 21 32
r 1.675067 3 2 ack 40 ------- 0 5.0 0.0 19 58
+ 1.675067 2 0 ack 40 ------- 0 5.0 0.0 19 58
- 1.675067 2 0 ack 40 ------- 0 5.0 0.0 19 58
r 1.675307 2 3 tcp 1040 ------- 0 0.0 5.0 20 30
+ 1.675307 3 5 tcp 1040 ------- 0 0.0 5.0 20 30
- 1.675307 3 5 tcp 1040 ------- 0 0.0 5.0 20 30
r 1.677131 2 0 ack 40 ------- 0 5.0 0.0 19 58
+ 1.677131 0 2 tcp 1040 ------- 0 0.0 5.0 39 59
- 1.677131 0 2 tcp 1040 ------- 0 0.0 5.0 39 59
r 1.680795 0 2 tcp 1040 ------- 0 0.0 5.0 39 59
+ 1.680795 2 3 tcp 1040 ------- 0 0.0 5.0 39 59
r 1.682853 3 5 tcp 1040 ------- 0 0.0 5.0 20 30
+ 1.682853 5 3 ack 40 ------- 0 5.0 0.0 20 60
- 1.682853 5 3 ack 40 ------- 0 5.0 0.0 20 60
r 1.685067 5 3 ack 40 ------- 0 5.0 0.0 20 60
+ 1.685067 3 2 ack 40 ------- 0 5.0 0.0 20 60
- 1.685067 3 2 ack 40 ------- 0 5.0 0.0 20 60
- 1.686107 2 3 tcp 1040 ------- 0 0.0 5.0 23 35
r 1.695867 3 2 ack 40 ------- 0 5.0 0.0 20 60
+ 1.695867 2 0 ack 40 ------- 0 5.0 0.0 20 60
- 1.695867 2 0 ack 40 ------- 0 5.0 0.0 20 60
r 1.696107 2 3 tcp 1040 ------- 0 0.0 5.0 21 32
+ 1.696107 3 5 tcp 1040 ------- 0 0.0 5.0 21 32
- 1.696107 3 5 tcp 1040 ------- 0 0.0 5.0 21 32
r 1.697931 2 0 ack 40 ------- 0 5.0 0.0 20 60
+ 1.697931 0 2 tcp 1040 ------- 0 0.0 5.0 40 61
- 1.697931 0 2 tcp 1040 ------- 0 0.0 5.0 40 61
r 1.701595 0 2 tcp 1040 ------- 0 0.0 5.0 40 61
+ 1.701595 2 3 tcp 1040 ------- 0 0.0 5.0 40 61
r 1.703653 3 5 tcp 1040 ------- 0 0.0 5.0 21 32
+ 1.703653 5 3 ack 40 ------- 0 5.0 0.0 21 62
- 1.703653 5 3 ack 40 ------- 0 5.0 0.0 21 62
r 1.705867 5 3 ack 40 ------- 0 5.0 0.0 21 62
+ 1.705867 3 2 ack 40 ------- 0 5.0 0.0 21 62
- 1.705867 3 2 ack 40 ------- 0 5.0 0.0 21 62
- 1.706907 2 3 tcp 1040 ------- 0 0.0 5.0 25 38
r 1.716667 3 2 ack 40 ------- 0 5.0 0.0 21 62
+ 1.716667 2 0 ack 40 ------- 0 5.0 0.0 21 62
- 1.716667 2 0 ack 40 ------- 0 5.0 0.0 21 62
r 1.716907 2 3 tcp 1040 ------- 0 0.0 5.0 23 35
+ 1.716907 3 5 tcp 1040 ------- 0 0.0 5.0 23 35
- 1.716907 3 5 tcp 1040 ------- 0 0.0 5.0 23 35
r 1.718731 2 0 ack 40 ------- 0 5.0 0.0 21 62
+ 1.718731 0 2 tcp 1040 ------- 0 0.0 5.0 41 63
- 1.718731 0 2 tcp 1040 ------- 0 0.0 5.0 41 63
r 1.722395 0 2 tcp 1040 ------- 0 0.0 5.0 41 63
+ 1.722395 2 3 tcp 1040 ------- 0 0.0 5.0 41 63
r 1.724453 3 5 tcp 1040 ------- 0 0.0 5.0 23 35
+ 1.724453 5 3 ack 40 ------- 0 5.0 0.0 21 64
- 1.724453 5 3 ack 40 ------- 0 5.0 0.0 21 64
r 1.726667 5 3 ack 40 ------- 0 5.0 0.0 21 64
+ 1.726667 3 2 ack 40 ------- 0 5.0 0.0 21 64
- 1.726667 3 2 ack 40 ------- 0 5.0 0.0 21 64
- 1.727707 2 3 tcp 1040 ------- 0 0.0 5.0 27 41
r 1.737467 3 2 ack 40 ------- 0 5.0 0.0 21 64
+ 1.737467 2 0 ack 40 ------- 0 5.0 0.0 21 64
- 1.737467 2 0 ack 40 ------- 0 5.0 0.0 21 64
r 1.737707 2 3 tcp 1040 ------- 0 0.0 5.0 25 38
+ 1.737707 3 5 tcp 1040 ------- 0 0.0 5.0 25 38
- 1.737707 3 5 tcp 1040 ------- 0 0.0 5.0 25 38
r 1.739531 2 0 ack 40 ------- 0 5.0 0.0 21 64
r 1.745253 3 5 tcp 1040 ------- 0 0.0 5.0 25 38
+ 1.745253 5 3 ack 40 ------- 0 5.0 0.0 21 65
- 1.745253 5 3 ack 40 ------- 0 5.0 0.0 21 65
r 1.747467 5 3 ack 40 ------- 0 5.0 0.0 21 65
+ 1.747467 3 2 ack 40 ------- 0 5.0 0.0 21 65
- 1.747467 3 2 ack 40 ------- 0 5.0 0.0 21 65
- 1.748507 2 3 tcp 1040 ------- 0 0.0 5.0 29 44
r 1.758267 3 2 ack 40 ------- 0 5.0 0.0 21 65
+ 1.758267 2 0 ack 40 ------- 0 5.0 0.0 21 65
- 1.758267 2 0 ack 40 ------- 0 5.0 0.0 21 65
r 1.758507 2 3 tcp 1040 ------- 0 0.0 5.0 27 41
+ 1.758507 3 5 tcp 1040 ------- 0 0.0 5.0 27 41
- 1.758507 3 5 tcp 1040 ------- 0 0.0 5.0 27 41
r 1.760331 2 0 ack 40 ------- 0 5.0 0.0 21 65
r 1.766053 3 5 tcp 1040 ------- 0 0.0 5.0 27 41
+ 1.766053 5 3 ack 40 ------- 0 5.0 0.0 21 66
- 1.766053 5 3 ack 40 ------- 0 5.0 0.0 21 66
r 1.768267 5 3 ack 40 ------- 0 5.0 0.0 21 66
+ 1.768267 3 2 ack 40 ------- 0 5.0 0.0 21 66
- 1.768267 3 2 ack 40 ------- 0 5.0 0.0 21 66
- 1.769307 2 3 tcp 1040 ------- 0 0.0 5.0 31 47
r 1.779067 3 2 ack 40 ------- 0 5.0 0.0 21 66
+ 1.779067 2 0 ack 40 ------- 0 5.0 0.0 21 66
- 1.779067 2 0 ack 40 ------- 0 5.0 0.0 21 66
r 1.779307 2 3 tcp 1040 ------- 0 0.0 5.0 29 44
+ 1.779307 3 5 tcp 1040 ------- 0 0.0 5.0 29 44
- 1.779307 3 5 tcp 1040 ------- 0 0.0 5.0 29 44
r 1.781131 2 0 ack 40 ------- 0 5.0 0.0 21 66
+ 1.781131 0 2 tcp 1040 ---A--- 0 0.0 5.0 22 67
- 1.781131 0 2 tcp 1040 ---A--- 0 0.0 5.0 22 67
r 1.784795 0 2 tcp 1040 ---A--- 0 0.0 5.0 22 67
+ 1.784795 2 3 tcp 1040 ---A--- 0 0.0 5.0 22 67
r 1.786853 3 5 tcp 1040 ------- 0 0.0 5.0 29 44
+ 1.786853 5 3 ack 40 ------- 0 5.0 0.0 21 68
- 1.786853 5 3 ack 40 ------- 0 5.0 0.0 21 68
r 1.789067 5 3 ack 40 ------- 0 5.0 0.0 21 68
+ 1.789067 3 2 ack 40 ------- 0 5.0 0.0 21 68
- 1.789067 3 2 ack 40 ------- 0 5.0 0.0 21 68
- 1.790107 2 3 tcp 1040 ------- 0 0.0 5.0 33 50
r 1.799867 3 2 ack 40 ------- 0 5.0 0.0 21 68
+ 1.799867 2 0 ack 40 ------- 0 5.0 0.0 21 68
- 1.799867 2 0 ack 40 ------- 0 5.0 0.0 21 68
r 1.800107 2 3 tcp 1040 ------- 0 0.0 5.0 31 47
+ 1.800107 3 5 tcp 1040 ------- 0 0.0 5.0 31 47
- 1.800107 3 5 tcp 1040 ------- 0 0.0 5.0 31 47
r 1.801931 2 0 ack 40 ------- 0 5.0 0.0 21 68
r 1.807653 3 5 tcp 1040 ------- 0 0.0 5.0 31 47
+ 1.807653 5 3 ack 40 ------- 0 5.0 0.0 21 69
- 1.807653 5 3 ack 40 ------- 0 5.0 0.0 21 69
r 1.809867 5 3 ack 40 ------- 0 5.0 0.0 21 69
+ 1.809867 3 2 ack 40 ------- 0 5.0 0.0 21 69
- 1.809867 3 2 ack 40 ------- 0 5.0 0.0 21 69
- 1.810907 2 3 tcp 1040 ------- 0 0.0 5.0 35 53
r 1.820667 3 2 ack 40 ------- 0 5.0 0.0 21 69
+ 1.820667 2 0 ack 40 ------- 0 5.0 0.0 21 69
- 1.820667 2 0 ack 40 ------- 0 5.0 0.0 21 69
r 1.820907 2 3 tcp 1040 ------- 0 0.0 5.0 33 50
+ 1.820907 3 5 tcp 1040 ------- 0 0.0 5.0 33 50
- 1.820907 3 5 tcp 1040 ------- 0 0.0 5.0 33 50
r 1.822731 2 0 ack 40 ------- 0 5.0 0.0 21 69
r 1.828453 3 5 tcp 1040 ------- 0 0.0 5.0 33 50
+ 1.828453 5 3 ack 40 ------- 0 5.0 0.0 21 70
- 1.828453 5 3 ack 40 ------- 0 5.0 0.0 21 70
r 1.830667 5 3 ack 40 ------- 0 5.0 0.0 21 70
+ 1.830667 3 2 ack 40 ------- 0 5.0 0.0 21 70
- 1.830667 3 2 ack 40 ------- 0 5.0 0.0 21 70
- 1.831707 2 3 tcp 1040 ------- 0 0.0 5.0 37 56
r 1.841467 3 2 ack 40 ------- 0 5.0 0.0 21 70
+ 1.841467 2 0 ack 40 ------- 0 5.0 0.0 21 70
- 1.841467 2 0 ack 40 ------- 0 5.0 0.0 21 70
r 1.841707 2 3 tcp 1040 ------- 0 0.0 5.0 35 53
+ 1.841707 3 5 tcp 1040 ------- 0 0.0 5.0 35 53
- 1.841707 3 5 tcp 1040 ------- 0 0.0 5.0 35 53
r 1.843531 2 0 ack 40 ------- 0 5.0 0.0 21 70
r 1.849253 3 5 tcp 1040 ------- 0 0.0 5.0 35 53
+ 1.849253 5 3 ack 40 ------- 0 5.0 0.0 21 71
- 1.849253 5 3 ack 40 ------- 0 5.0 0.0 21 71
r 1.851467 5 3 ack 40 ------- 0 5.0 0.0 21 71
+ 1.851467 3 2 ack 40 ------- 0 5.0 0.0 21 71
- 1.851467 3 2 ack 40 ------- 0 5.0 0.0 21 71
- 1.852507 2 3 tcp 1040 ------- 0 0.0 5.0 39 59
r 1.862267 3 2 ack 40 ------- 0 5.0 0.0 21 71
+ 1.862267 2 0 ack 40 ------- 0 5.0 0.0 21 71
- 1.862267 2 0 ack 40 ------- 0 5.0 0.0 21 71
r 1.862507 2 3 tcp 1040 ------- 0 0.0 5.0 37 56
+ 1.862507 3 5 tcp 1040 ------- 0 0.0 5.0 37 56
- 1.862507 3 5 tcp 1040 ------- 0 0.0 5.0 37 56
r 1.864331 2 0 ack 40 ------- 0 5.0 0.0 21 71
r 1.870053 3 5 tcp 1040 ------- 0 0.0 5.0 37 56
+ 1.870053 5 3 ack 40 ------- 0 5.0 0.0 21 72
- 1.870053 5 3 ack 40 ------- 0 5.0 0.0 21 72
r 1.872267 5 3 ack 40 ------- 0 5.0 0.0 21 72
+ 1.872267 3 2 ack 40 ------- 0 5.0 0.0 21 72
- 1.872267 3 2 ack 40 ------- 0 5.0 0.0 21 72
- 1.873307 2 3 tcp 1040 ------- 0 0.0 5.0 40 61
r 1.883067 3 2 ack 40 ------- 0 5.0 0.0 21 72
+ 1.883067 2 0 ack 40 ------- 0 5.0 0.0 21 72
- 1.883067 2 0 ack 40 ------- 0 5.0 0.0 21 72
r 1.883307 2 3 tcp 1040 ------- 0 0.0 5.0 39 59
+ 1.883307 3 5 tcp 1040 ------- 0 0.0 5.0 39 59
- 1.883307 3 5 tcp 1040 ------- 0 0.0 5.0 39 59
r 1.885131 2 0 ack 40 ------- 0 5.0 0.0 21 72
r 1.890853 3 5 tcp 1040 ------- 0 0.0 5.0 39 59
+ 1.890853 5 3 ack 40 ------- 0 5.0 0.0 21 73
- 1.890853 5 3 ack 40 ------- 0 5.0 0.0 21 73
r 1.893067 5 3 ack 40 ------- 0 5.0 0.0 21 73
+ 1.893067 3 2 ack 40 ------- 0 5.0 0.0 21 73
- 1.893067 3 2 ack 40 ------- 0 5.0 0.0 21 73
- 1.894107 2 3 tcp 1040 ------- 0 0.0 5.0 41 63
r 1.903867 3 2 ack 40 ------- 0 5.0 0.0 21 73
+ 1.903867 2 0 ack 40 ------- 0 5.0 0.0 21 73
- 1.903867 2 0 ack 40 ------- 0 5.0 0.0 21 73
r 1.904107 2 3 tcp 1040 ------- 0 0.0 5.0 40 61
+ 1.904107 3 5 tcp 1040 ------- 0 0.0 5.0 40 61
- 1.904107 3 5 tcp 1040 ------- 0 0.0 5.0 40 61
r 1.905931 2 0 ack 40 ------- 0 5.0 0.0 21 73
r 1.911653 3 5 tcp 1040 ------- 0 0.0 5.0 40 61
+ 1.911653 5 3 ack 40 ------- 0 5.0 0.0 21 74
- 1.911653 5 3 ack 40 ------- 0 5.0 0.0 21 74
r 1.913867 5 3 ack 40 ------- 0 5.0 0.0 21 74
+ 1.913867 3 2 ack 40 ------- 0 5.0 0.0 21 74
- 1.913867 3 2 ack 40 ------- 0 5.0 0.0 21 74
- 1.914907 2 3 tcp 1040 ---A--- 0 0.0 5.0 22 67
r 1.924667 3 2 ack 40 ------- 0 5.0 0.0 21 74
+ 1.924667 2 0 ack 40 ------- 0 5.0 0.0 21 74
- 1.924667 2 0 ack 40 ------- 0 5.0 0.0 21 74
r 1.924907 2 3 tcp 1040 ------- 0 0.0 5.0 41 63
+ 1.924907 3 5 tcp 1040 ------- 0 0.0 5.0 41 63
- 1.924907 3 5 tcp 1040 ------- 0 0.0 5.0 41 63
r 1.926731 2 0 ack 40 ------- 0 5.0 0.0 21 74
r 1.932453 3 5 tcp 1040 ------- 0 0.0 5.0 41 63
+ 1.932453 5 3 ack 40 ------- 0 5.0 0.0 21 75
- 1.932453 5 3 ack 40 ------- 0 5.0 0.0 21 75
r 1.934667 5 3 ack 40 ------- 0 5.0 0.0 21 75
+ 1.934667 3 2 ack 40 ------- 0 5.0 0.0 21 75
- 1.934667 3 2 ack 40 ------- 0 5.0 0.0 21 75
r 1.945467 3 2 ack 40 ------- 0 5.0 0.0 21 75
+ 1.945467 2 0 ack 40 ------- 0 5.0 0.0 21 75
- 1.945467 2 0 ack 40 ------- 0 5.0 0.0 21 75