n -t 0 -s 0 -S DLABEL -l "Client" -L ""
n -t 0 -s 1 -S DLABEL -l "Server" -L ""
V -t * -v 1.0a5 -a 0
A -t * -n 1 -p 0 -o 0x7fffffff -c 30 -a 1
A -t * -h 1 -m 1073741823 -s 0
n -t * -a 0 -s 0 -S UP -v circle -c black -i black
n -t * -a 1 -s 1 -S UP -v circle -c black -i black
l -t * -s 0 -d 1 -S UP -r 300000 -D 0.01 -c black
+ -t 0.1 -s 0 -d 1 -p tcp -e 40 -c 0 -i 0 -a 0 -x {0.0 1.0 0 ------- null}
- -t 0.1 -s 0 -d 1 -p tcp -e 40 -c 0 -i 0 -a 0 -x {0.0 1.0 0 ------- null}
h -t 0.1 -s 0 -d 1 -p tcp -e 40 -c 0 -i 0 -a 0 -x {0.0 1.0 -1 ------- null}
r -t 0.111066666666667 -s 0 -d 1 -p tcp -e 40 -c 0 -i 0 -a 0 -x {0.0 1.0 0 ------- null}
+ -t 0.111066666666667 -s 1 -d 0 -p ack -e 40 -c 0 -i 1 -a 0 -x {1.0 0.0 0 ------- null}
- -t 0.111066666666667 -s 1 -d 0 -p ack -e 40 -c 0 -i 1 -a 0 -x {1.0 0.0 0 ------- null}
h -t 0.111066666666667 -s 1 -d 0 -p ack -e 40 -c 0 -i 1 -a 0 -x {1.0 0.0 -1 ------- null}
r -t 0.122133333333333 -s 1 -d 0 -p ack -e 40 -c 0 -i 1 -a 0 -x {1.0 0.0 0 ------- null}
+ -t 0.122133333333333 -s 0 -d 1 -p tcp -e 1540 -c 0 -i 2 -a 0 -x {0.0 1.0 1 ------- null}
- -t 0.122133333333333 -s 0 -d 1 -p tcp -e 1540 -c 0 -i 2 -a 0 -x {0.0 1.0 1 ------- null}
h -t 0.122133333333333 -s 0 -d 1 -p tcp -e 1540 -c 0 -i 2 -a 0 -x {0.0 1.0 -1 ------- null}
+ -t 0.122133333333333 -s 0 -d 1 -p tcp -e 1540 -c 0 -i 3 -a 0 -x {0.0 1.0 2 ------- null}
- -t 0.1632 -s 0 -d 1 -p tcp -e 1540 -c 0 -i 3 -a 0 -x {0.0 1.0 2 ------- null}
h -t 0.1632 -s 0 -d 1 -p tcp -e 1540 -c 0 -i 3 -a 0 -x {0.0 1.0 -1 ------- null}
r -t 0.1732 -s 0 -d 1 -p tcp -e 1540 -c 0 -i 2 -a 0 -x {0.0 1.0 1 ------- null}
+ -t 0.1732 -s 1 -d 0 -p ack -e 40 -c 0 -i 4 -a 0 -x {1.0 0.0 1 ------- null}
- -t 0.1732 -s 1 -d 0 -p ack -e 40 -c 0 -i 4 -a 0 -x {1.0 0.0 1 ------- null}
h -t 0.1732 -s 1 -d 0 -p ack -e 40 -c 0 -i 4 -a 0 -x {1.0 0.0 -1 ------- null}
r -t 0.184266666666667 -s 1 -d 0 -p ack -e 40 -c 0 -i 4 -a 0 -x {1.0 0.0 1 ------- null}
+ -t 0.184266666666667 -s 0 -d 1 -p tcp -e 1540 -c 0 -i 5 -a 0 -x {0.0 1.0 3 ------- null}
+ -t 0.184266666666667 -s 0 -d 1 -p tcp -e 1540 -c 0 -i 6 -a 0 -x {0.0 1.0 4 ------- null}
- -t 0.204266666666667 -s 0 -d 1 -p tcp -e 1540 -c 0 -i 5 -a 0 -x {0.0 1.0 3 ------- null}
h -t 0.204266666666667 -s 0 -d 1 -p tcp -e 1540 -c 0 -i 5 -a 0 -x {0.0 1.0 -1 ------- null}
r -t 0.214266666666667 -s 0 -d 1 -p tcp -e 1540 -c 0 -i 3 -a 0 -x {0.0 1.0 2 ------- null}
+ -t 0.214266666666667 -s 1 -d 0 -p ack -e 40 -c 0 -i 7 -a 0 -x {1.0 0.0 2 ------- null}
- -t 0.214266666666667 -s 1 -d 0 -p ack -e 40 -c 0 -i 7 -a 0 -x {1.0 0.0 2 ------- null}
h -t 0.214266666666667 -s 1 -d 0 -p ack -e 40 -c 0 -i 7 -a 0 -x {1.0 0.0 -1 ------- null}
r -t 0.225333333333333 -s 1 -d 0 -p ack -e 40 -c 0 -i 7 -a 0 -x {1.0 0.0 2 ------- null}
+ -t 0.225333333333333 -s 0 -d 1 -p tcp -e 1540 -c 0 -i 8 -a 0 -x {0.0 1.0 5 ------- null}
+ -t 0.225333333333333 -s 0 -d 1 -p tcp -e 1540 -c 0 -i 9 -a 0 -x {0.0 1.0 6 ------- null}
- -t 0.245333333333333 -s 0 -d 1 -p tcp -e 1540 -c 0 -i 6 -a 0 -x {0.0 1.0 4 ------- null}
h -t 0.245333333333333 -s 0 -d 1 -p tcp -e 1540 -c 0 -i 6 -a 0 -x {0.0 1.0 -1 ------- null}
r -t 0.255333333333333 -s 0 -d 1 -p tcp -e 1540 -c 0 -i 5 -a 0 -x {0.0 1.0 3 ------- null}
+ -t 0.255333333333333 -s 1 -d 0 -p ack -e 40 -c 0 -i 10 -a 0 -x {1.0 0.0 3 ------- null}
- -t 0.255333333333333 -s 1 -d 0 -p ack -e 40 -c 0 -i 10 -a 0 -x {1.0 0.0 3 ------- null}
h -t 0.255333333333333 -s 1 -d 0 -p ack -e 40 -c 0 -i 10 -a 0 -x {1.0 0.0 -1 ------- null}
r -t 0.2664 -s 1 -d 0 -p ack -e 40 -c 0 -i 10 -a 0 -x {1.0 0.0 3 ------- null}
+ -t 0.2664 -s 0 -d 1 -p tcp -e 1540 -c 0 -i 11 -a 0 -x {0.0 1.0 7 ------- null}
+ -t 0.2664 -s 0 -d 1 -p tcp -e 1540 -c 0 -i 12 -a 0 -x {0.0 1.0 8 ------- null}
- -t 0.2864 -s 0 -d 1 -p tcp -e 1540 -c 0 -i 8 -a 0 -x {0.0 1.0 5 ------- null}
h -t 0.2864 -s 0 -d 1 -p tcp -e 1540 -c 0 -i 8 -a 0 -x {0.0 1.0 -1 ------- null}
r -t 0.2964 -s 0 -d 1 -p tcp -e 1540 -c 0 -i 6 -a 0 -x {0.0 1.0 4 ------- null}
+ -t 0.2964 -s 1 -d 0 -p ack -e 40 -c 0 -i 13 -a 0 -x {1.0 0.0 4 ------- null}
- -t 0.2964 -s 1 -d 0 -p ack -e 40 -c 0 -i 13 -a 0 -x {1.0 0.0 4 ------- null}
h -t 0.2964 -s 1 -d 0 -p ack -e 40 -c 0 -i 13 -a 0 -x {1.0 0.0 -1 ------- null}
r -t 0.307466666666667 -s 1 -d 0 -p ack -e 40 -c 0 -i 13 -a 0 -x {1.0 0.0 4 ------- null}
+ -t 0.307466666666667 -s 0 -d 1 -p tcp -e 1540 -c 0 -i 14 -a 0 -x {0.0 1.0 9 ------- null}
+ -t 0.307466666666667 -s 0 -d 1 -p tcp -e 1540 -c 0 -i 15 -a 0 -x {0.0 1.0 10 ------- null}
- -t 0.327466666666667 -s 0 -d 1 -p tcp -e 1540 -c 0 -i 9 -a 0 -x {0.0 1.0 6 ------- null}
h -t 0.327466666666667 -s 0 -d 1 -p tcp -e 1540 -c 0 -i 9 -a 0 -x {0.0 1.0 -1 ------- null}
r -t 0.337466666666667 -s 0 -d 1 -p tcp -e 1540 -c 0 -i 8 -a 0 -x {0.0 1.0 5 ------- null}
+ -t 0.337466666666667 -s 1 -d 0 -p ack -e 40 -c 0 -i 16 -a 0 -x {1.0 0.0 5 ------- null}
- -t 0.337466666666667 -s 1 -d 0 -p ack -e 40 -c 0 -i 16 -a 0 -x {1.0 0.0 5 ------- null}
h -t 0.337466666666667 -s 1 -d 0 -p ack -e 40 -c 0 -i 16 -a 0 -x {1.0 0.0 -1 ------- null}
r -t 0.348533333333333 -s 1 -d 0 -p ack -e 40 -c 0 -i 16 -a 0 -x {1.0 0.0 5 ------- null}
+ -t 0.348533333333333 -s 0 -d 1 -p tcp -e 1540 -c 0 -i 17 -a 0 -x {0.0 1.0 11 ------- null}
+ -t 0.348533333333333 -s 0 -d 1 -p tcp -e 1540 -c 0 -i 18 -a 0 -x {0.0 1.0 12 ------- null}
- -t 0.368533333333333 -s 0 -d 1 -p tcp -e 1540 -c 0 -i 11 -a 0 -x {0.0 1.0 7 ------- null}
h -t 0.368533333333333 -s 0 -d 1 -p tcp -e 1540 -c 0 -i 11 -a 0 -x {0.0 1.0 -1 ------- null}
r -t 0.378533333333333 -s 0 -d 1 -p tcp -e 1540 -c 0 -i 9 -a 0 -x {0.0 1.0 6 ------- null}
+ -t 0.378533333333333 -s 1 -d 0 -p ack -e 40 -c 0 -i 19 -a 0 -x {1.0 0.0 6 ------- null}
- -t 0.378533333333333 -s 1 -d 0 -p ack -e 40 -c 0 -i 19 -a 0 -x {1.0 0.0 6 ------- null}
h -t 0.378533333333333 -s 1 -d 0 -p ack -e 40 -c 0 -i 19 -a 0 -x {1.0 0.0 -1 ------- null}
r -t 0.3896 -s 1 -d 0 -p ack -e 40 -c 0 -i 19 -a 0 -x {1.0 0.0 6 ------- null}
+ -t 0.3896 -s 0 -d 1 -p tcp -e 1540 -c 0 -i 20 -a 0 -x {0.0 1.0 13 ------- null}
+ -t 0.3896 -s 0 -d 1 -p tcp -e 1540 -c 0 -i 21 -a 0 -x {0.0 1.0 14 ------- null}
- -t 0.4096 -s 0 -d 1 -p tcp -e 1540 -c 0 -i 12 -a 0 -x {0.0 1.0 8 ------- null}
h -t 0.4096 -s 0 -d 1 -p tcp -e 1540 -c 0 -i 12 -a 0 -x {0.0 1.0 -1 ------- null}
r -t 0.4196 -s 0 -d 1 -p tcp -e 1540 -c 0 -i 11 -a 0 -x {0.0 1.0 7 ------- null}
+ -t 0.4196 -s 1 -d 0 -p ack -e 40 -c 0 -i 22 -a 0 -x {1.0 0.0 7 ------- null}
- -t 0.4196 -s 1 -d 0 -p ack -e 40 -c 0 -i 22 -a 0 -x {1.0 0.0 7 ------- null}
h -t 0.4196 -s 1 -d 0 -p ack -e 40 -c 0 -i 22 -a 0 -x {1.0 0.0 -1 ------- null}
r -t 0.430666666666667 -s 1 -d 0 -p ack -e 40 -c 0 -i 22 -a 0 -x {1.0 0.0 7 ------- null}
+ -t 0.430666666666667 -s 0 -d 1 -p tcp -e 1540 -c 0 -i 23 -a 0 -x {0.0 1.0 15 ------- null}
+ -t 0.430666666666667 -s 0 -d 1 -p tcp -e 1540 -c 0 -i 24 -a 0 -x {0.0 1.0 16 ------- null}
- -t 0.450666666666667 -s 0 -d 1 -p tcp -e 1540 -c 0 -i 14 -a 0 -x {0.0 1.0 9 ------- null}
h -t 0.450666666666667 -s 0 -d 1 -p tcp -e 1540 -c 0 -i 14 -a 0 -x {0.0 1.0 -1 ------- null}
r -t 0.460666666666667 -s 0 -d 1 -p tcp -e 1540 -c 0 -i 12 -a 0 -x {0.0 1.0 8 ------- null}
+ -t 0.460666666666667 -s 1 -d 0 -p ack -e 40 -c 0 -i 25 -a 0 -x {1.0 0.0 8 ------- null}
- -t 0.460666666666667 -s 1 -d 0 -p ack -e 40 -c 0 -i 25 -a 0 -x {1.0 0.0 8 ------- null}
h -t 0.460666666666667 -s 1 -d 0 -p ack -e 40 -c 0 -i 25 -a 0 -x {1.0 0.0 -1 ------- null}
r -t 0.471733333333333 -s 1 -d 0 -p ack -e 40 -c 0 -i 25 -a 0 -x {1.0 0.0 8 ------- null}
+ -t 0.471733333333333 -s 0 -d 1 -p tcp -e 1540 -c 0 -i 26 -a 0 -x {0.0 1.0 17 ------- null}
+ -t 0.471733333333333 -s 0 -d 1 -p tcp -e 1540 -c 0 -i 27 -a 0 -x {0.0 1.0 18 ------- null}
- -t 0.491733333333333 -s 0 -d 1 -p tcp -e 1540 -c 0 -i 15 -a 0 -x {0.0 1.0 10 ------- null}
h -t 0.491733333333333 -s 0 -d 1 -p tcp -e 1540 -c 0 -i 15 -a 0 -x {0.0 1.0 -1 ------- null}
r -t 0.501733333333333 -s 0 -d 1 -p tcp -e 1540 -c 0 -i 14 -a 0 -x {0.0 1.0 9 ------- null}
+ -t 0.501733333333333 -s 1 -d 0 -p ack -e 40 -c 0 -i 28 -a 0 -x {1.0 0.0 9 ------- null}
- -t 0.501733333333333 -s 1 -d 0 -p ack -e 40 -c 0 -i 28 -a 0 -x {1.0 0.0 9 ------- null}
h -t 0.501733333333333 -s 1 -d 0 -p ack -e 40 -c 0 -i 28 -a 0 -x {1.0 0.0 -1 ------- null}
r -t 0.5128 -s 1 -d 0 -p ack -e 40 -c 0 -i 28 -a 0 -x {1.0 0.0 9 ------- null}
+ -t 0.5128 -s 0 -d 1 -p tcp -e 1540 -c 0 -i 29 -a 0 -x {0.0 1.0 19 ------- null}
+ -t 0.5128 -s 0 -d 1 -p tcp -e 1540 -c 0 -i 30 -a 0 -x {0.0 1.0 20 ------- null}
- -t 0.5328 -s 0 -d 1 -p tcp -e 1540 -c 0 -i 17 -a 0 -x {0.0 1.0 11 ------- null}
h -t 0.5328 -s 0 -d 1 -p tcp -e 1540 -c 0 -i 17 -a 0 -x {0.0 1.0 -1 ------- null}
r -t 0.5428 -s 0 -d 1 -p tcp -e 1540 -c 0 -i 15 -a 0 -x {0.0 1.0 10 ------- null}
+ -t 0.5428 -s 1 -d 0 -p ack -e 40 -c 0 -i 31 -a 0 -x {1.0 0.0 10 ------- null}
- -t 0.5428 -s 1 -d 0 -p ack -e 40 -c 0 -i 31 -a 0 -x {1.0 0.0 10 ------- null}
h -t 0.5428 -s 1 -d 0 -p ack -e 40 -c 0 -i 31 -a 0 -x {1.0 0.0 -1 ------- null}
r -t 0.553866666666667 -s 1 -d 0 -p ack -e 40 -c 0 -i 31 -a 0 -x {1.0 0.0 10 ------- null}
+ -t 0.553866666666667 -s 0 -d 1 -p tcp -e 1540 -c 0 -i 32 -a 0 -x {0.0 1.0 21 ------- null}
+ -t 0.553866666666667 -s 0 -d 1 -p tcp -e 1540 -c 0 -i 33 -a 0 -x {0.0 1.0 22 ------- null}
- -t 0.573866666666667 -s 0 -d 1 -p tcp -e 1540 -c 0 -i 18 -a 0 -x {0.0 1.0 12 ------- null}
h -t 0.573866666666667 -s 0 -d 1 -p tcp -e 1540 -c 0 -i 18 -a 0 -x {0.0 1.0 -1 ------- null}
r -t 0.583866666666667 -s 0 -d 1 -p tcp -e 1540 -c 0 -i 17 -a 0 -x {0.0 1.0 11 ------- null}
+ -t 0.583866666666667 -s 1 -d 0 -p ack -e 40 -c 0 -i 34 -a 0 -x {1.0 0.0 11 ------- null}
- -t 0.583866666666667 -s 1 -d 0 -p ack -e 40 -c 0 -i 34 -a 0 -x {1.0 0.0 11 ------- null}
h -t 0.583866666666667 -s 1 -d 0 -p ack -e 40 -c 0 -i 34 -a 0 -x {1.0 0.0 -1 ------- null}
r -t 0.594933333333334 -s 1 -d 0 -p ack -e 40 -c 0 -i 34 -a 0 -x {1.0 0.0 11 ------- null}
+ -t 0.594933333333334 -s 0 -d 1 -p tcp -e 1540 -c 0 -i 35 -a 0 -x {0.0 1.0 23 ------- null}
+ -t 0.594933333333334 -s 0 -d 1 -p tcp -e 1540 -c 0 -i 36 -a 0 -x {0.0 1.0 24 ------- null}
- -t 0.614933333333334 -s 0 -d 1 -p tcp -e 1540 -c 0 -i 20 -a 0 -x {0.0 1.0 13 ------- null}
h -t 0.614933333333334 -s 0 -d 1 -p tcp -e 1540 -c 0 -i 20 -a 0 -x {0.0 1.0 -1 ------- null}
r -t 0.624933333333334 -s 0 -d 1 -p tcp -e 1540 -c 0 -i 18 -a 0 -x {0.0 1.0 12 ------- null}
+ -t 0.624933333333334 -s 1 -d 0 -p ack -e 40 -c 0 -i 37 -a 0 -x {1.0 0.0 12 ------- null}
- -t 0.624933333333334 -s 1 -d 0 -p ack -e 40 -c 0 -i 37 -a 0 -x {1.0 0.0 12 ------- null}
h -t 0.624933333333334 -s 1 -d 0 -p ack -e 40 -c 0 -i 37 -a 0 -x {1.0 0.0 -1 ------- null}
r -t 0.636 -s 1 -d 0 -p ack -e 40 -c 0 -i 37 -a 0 -x {1.0 0.0 12 ------- null}
+ -t 0.636 -s 0 -d 1 -p tcp -e 1540 -c 0 -i 38 -a 0 -x {0.0 1.0 25 ------- null}
+ -t 0.636 -s 0 -d 1 -p tcp -e 1540 -c 0 -i 39 -a 0 -x {0.0 1.0 26 ------- null}
- -t 0.656 -s 0 -d 1 -p tcp -e 1540 -c 0 -i 21 -a 0 -x {0.0 1.0 14 ------- null}
h -t 0.656 -s 0 -d 1 -p tcp -e 1540 -c 0 -i 21 -a 0 -x {0.0 1.0 -1 ------- null}
r -t 0.666 -s 0 -d 1 -p tcp -e 1540 -c 0 -i 20 -a 0 -x {0.0 1.0 13 ------- null}
+ -t 0.666 -s 1 -d 0 -p ack -e 40 -c 0 -i 40 -a 0 -x {1.0 0.0 13 ------- null}
- -t 0.666 -s 1 -d 0 -p ack -e 40 -c 0 -i 40 -a 0 -x {1.0 0.0 13 ------- null}
h -t 0.666 -s 1 -d 0 -p ack -e 40 -c 0 -i 40 -a 0 -x {1.0 0.0 -1 ------- null}
r -t 0.677066666666667 -s 1 -d 0 -p ack -e 40 -c 0 -i 40 -a 0 -x {1.0 0.0 13 ------- null}
+ -t 0.677066666666667 -s 0 -d 1 -p tcp -e 1540 -c 0 -i 41 -a 0 -x {0.0 1.0 27 ------- null}
+ -t 0.677066666666667 -s 0 -d 1 -p tcp -e 1540 -c 0 -i 42 -a 0 -x {0.0 1.0 28 ------- null}
- -t 0.697066666666667 -s 0 -d 1 -p tcp -e 1540 -c 0 -i 23 -a 0 -x {0.0 1.0 15 ------- null}
h -t 0.697066666666667 -s 0 -d 1 -p tcp -e 1540 -c 0 -i 23 -a 0 -x {0.0 1.0 -1 ------- null}
r -t 0.707066666666667 -s 0 -d 1 -p tcp -e 1540 -c 0 -i 21 -a 0 -x {0.0 1.0 14 ------- null}
+ -t 0.707066666666667 -s 1 -d 0 -p ack -e 40 -c 0 -i 43 -a 0 -x {1.0 0.0 14 ------- null}
- -t 0.707066666666667 -s 1 -d 0 -p ack -e 40 -c 0 -i 43 -a 0 -x {1.0 0.0 14 ------- null}
h -t 0.707066666666667 -s 1 -d 0 -p ack -e 40 -c 0 -i 43 -a 0 -x {1.0 0.0 -1 ------- null}
r -t 0.718133333333334 -s 1 -d 0 -p ack -e 40 -c 0 -i 43 -a 0 -x {1.0 0.0 14 ------- null}
+ -t 0.718133333333334 -s 0 -d 1 -p tcp -e 1540 -c 0 -i 44 -a 0 -x {0.0 1.0 29 ------- null}
+ -t 0.718133333333334 -s 0 -d 1 -p tcp -e 1540 -c 0 -i 45 -a 0 -x {0.0 1.0 30 ------- null}
- -t 0.738133333333334 -s 0 -d 1 -p tcp -e 1540 -c 0 -i 24 -a 0 -x {0.0 1.0 16 ------- null}
h -t 0.738133333333334 -s 0 -d 1 -p tcp -e 1540 -c 0 -i 24 -a 0 -x {0.0 1.0 -1 ------- null}
r -t 0.748133333333334 -s 0 -d 1 -p tcp -e 1540 -c 0 -i 23 -a 0 -x {0.0 1.0 15 ------- null}
+ -t 0.748133333333334 -s 1 -d 0 -p ack -e 40 -c 0 -i 46 -a 0 -x {1.0 0.0 15 ------- null}
- -t 0.748133333333334 -s 1 -d 0 -p ack -e 40 -c 0 -i 46 -a 0 -x {1.0 0.0 15 ------- null}
h -t 0.748133333333334 -s 1 -d 0 -p ack -e 40 -c 0 -i 46 -a 0 -x {1.0 0.0 -1 ------- null}
r -t 0.7592 -s 1 -d 0 -p ack -e 40 -c 0 -i 46 -a 0 -x {1.0 0.0 15 ------- null}
+ -t 0.7592 -s 0 -d 1 -p tcp -e 1540 -c 0 -i 47 -a 0 -x {0.0 1.0 31 ------- null}
+ -t 0.7592 -s 0 -d 1 -p tcp -e 1540 -c 0 -i 48 -a 0 -x {0.0 1.0 32 ------- null}
- -t 0.7792 -s 0 -d 1 -p tcp -e 1540 -c 0 -i 26 -a 0 -x {0.0 1.0 17 ------- null}
h -t 0.7792 -s 0 -d 1 -p tcp -e 1540 -c 0 -i 26 -a 0 -x {0.0 1.0 -1 ------- null}
r -t 0.7892 -s 0 -d 1 -p tcp -e 1540 -c 0 -i 24 -a 0 -x {0.0 1.0 16 ------- null}
+ -t 0.7892 -s 1 -d 0 -p ack -e 40 -c 0 -i 49 -a 0 -x {1.0 0.0 16 ------- null}
- -t 0.7892 -s 1 -d 0 -p ack -e 40 -c 0 -i 49 -a 0 -x {1.0 0.0 16 ------- null}
h -t 0.7892 -s 1 -d 0 -p ack -e 40 -c 0 -i 49 -a 0 -x {1.0 0.0 -1 ------- null}
r -t 0.800266666666667 -s 1 -d 0 -p ack -e 40 -c 0 -i 49 -a 0 -x {1.0 0.0 16 ------- null}
+ -t 0.800266666666667 -s 0 -d 1 -p tcp -e 1540 -c 0 -i 50 -a 0 -x {0.0 1.0 33 ------- null}
+ -t 0.800266666666667 -s 0 -d 1 -p tcp -e 1540 -c 0 -i 51 -a 0 -x {0.0 1.0 34 ------- null}
- -t 0.820266666666667 -s 0 -d 1 -p tcp -e 1540 -c 0 -i 27 -a 0 -x {0.0 1.0 18 ------- null}
h -t 0.820266666666667 -s 0 -d 1 -p tcp -e 1540 -c 0 -i 27 -a 0 -x {0.0 1.0 -1 ------- null}
r -t 0.830266666666667 -s 0 -d 1 -p tcp -e 1540 -c 0 -i 26 -a 0 -x {0.0 1.0 17 ------- null}
+ -t 0.830266666666667 -s 1 -d 0 -p ack -e 40 -c 0 -i 52 -a 0 -x {1.0 0.0 17 ------- null}
- -t 0.830266666666667 -s 1 -d 0 -p ack -e 40 -c 0 -i 52 -a 0 -x {1.0 0.0 17 ------- null}
h -t 0.830266666666667 -s 1 -d 0 -p ack -e 40 -c 0 -i 52 -a 0 -x {1.0 0.0 -1 ------- null}
r -t 0.841333333333334 -s 1 -d 0 -p ack -e 40 -c 0 -i 52 -a 0 -x {1.0 0.0 17 ------- null}
+ -t 0.841333333333334 -s 0 -d 1 -p tcp -e 1540 -c 0 -i 53 -a 0 -x {0.0 1.0 35 ------- null}
+ -t 0.841333333333334 -s 0 -d 1 -p tcp -e 1540 -c 0 -i 54 -a 0 -x {0.0 1.0 36 ------- null}
- -t 0.861333333333334 -s 0 -d 1 -p tcp -e 1540 -c 0 -i 29 -a 0 -x {0.0 1.0 19 ------- null}
h -t 0.861333333333334 -s 0 -d 1 -p tcp -e 1540 -c 0 -i 29 -a 0 -x {0.0 1.0 -1 ------- null}
r -t 0.871333333333334 -s 0 -d 1 -p tcp -e 1540 -c 0 -i 27 -a 0 -x {0.0 1.0 18 ------- null}
+ -t 0.871333333333334 -s 1 -d 0 -p ack -e 40 -c 0 -i 55 -a 0 -x {1.0 0.0 18 ------- null}
- -t 0.871333333333334 -s 1 -d 0 -p ack -e 40 -c 0 -i 55 -a 0 -x {1.0 0.0 18 ------- null}
h -t 0.871333333333334 -s 1 -d 0 -p ack -e 40 -c 0 -i 55 -a 0 -x {1.0 0.0 -1 ------- null}
r -t 0.8824 -s 1 -d 0 -p ack -e 40 -c 0 -i 55 -a 0 -x {1.0 0.0 18 ------- null}
+ -t 0.8824 -s 0 -d 1 -p tcp -e 1540 -c 0 -i 56 -a 0 -x {0.0 1.0 37 ------- null}
+ -t 0.8824 -s 0 -d 1 -p tcp -e 1540 -c 0 -i 57 -a 0 -x {0.0 1.0 38 ------- null}
- -t 0.9024 -s 0 -d 1 -p tcp -e 1540 -c 0 -i 30 -a 0 -x {0.0 1.0 20 ------- null}
h -t 0.9024 -s 0 -d 1 -p tcp -e 1540 -c 0 -i 30 -a 0 -x {0.0 1.0 -1 ------- null}
r -t 0.9124 -s 0 -d 1 -p tcp -e 1540 -c 0 -i 29 -a 0 -x {0.0 1.0 19 ------- null}
+ -t 0.9124 -s 1 -d 0 -p ack -e 40 -c 0 -i 58 -a 0 -x {1.0 0.0 19 ------- null}
- -t 0.9124 -s 1 -d 0 -p ack -e 40 -c 0 -i 58 -a 0 -x {1.0 0.0 19 ------- null}
h -t 0.9124 -s 1 -d 0 -p ack -e 40 -c 0 -i 58 -a 0 -x {1.0 0.0 -1 ------- null}
r -t 0.923466666666667 -s 1 -d 0 -p ack -e 40 -c 0 -i 58 -a 0 -x {1.0 0.0 19 ------- null}
+ -t 0.923466666666667 -s 0 -d 1 -p tcp -e 1540 -c 0 -i 59 -a 0 -x {0.0 1.0 39 ------- null}
- -t 0.943466666666667 -s 0 -d 1 -p tcp -e 1540 -c 0 -i 32 -a 0 -x {0.0 1.0 21 ------- null}
h -t 0.943466666666667 -s 0 -d 1 -p tcp -e 1540 -c 0 -i 32 -a 0 -x {0.0 1.0 -1 ------- null}
r -t 0.953466666666667 -s 0 -d 1 -p tcp -e 1540 -c 0 -i 30 -a 0 -x {0.0 1.0 20 ------- null}
+ -t 0.953466666666667 -s 1 -d 0 -p ack -e 40 -c 0 -i 60 -a 0 -x {1.0 0.0 20 ------- null}
- -t 0.953466666666667 -s 1 -d 0 -p ack -e 40 -c 0 -i 60 -a 0 -x {1.0 0.0 20 ------- null}
h -t 0.953466666666667 -s 1 -d 0 -p ack -e 40 -c 0 -i 60 -a 0 -x {1.0 0.0 -1 ------- null}
r -t 0.964533333333334 -s 1 -d 0 -p ack -e 40 -c 0 -i 60 -a 0 -x {1.0 0.0 20 ------- null}
+ -t 0.964533333333334 -s 0 -d 1 -p tcp -e 1540 -c 0 -i 61 -a 0 -x {0.0 1.0 40 ------- null}
- -t 0.984533333333334 -s 0 -d 1 -p tcp -e 1540 -c 0 -i 33 -a 0 -x {0.0 1.0 22 ------- null}
h -t 0.984533333333334 -s 0 -d 1 -p tcp -e 1540 -c 0 -i 33 -a 0 -x {0.0 1.0 -1 ------- null}
r -t 0.994533333333334 -s 0 -d 1 -p tcp -e 1540 -c 0 -i 32 -a 0 -x {0.0 1.0 21 ------- null}
+ -t 0.994533333333334 -s 1 -d 0 -p ack -e 40 -c 0 -i 62 -a 0 -x {1.0 0.0 21 ------- null}
- -t 0.994533333333334 -s 1 -d 0 -p ack -e 40 -c 0 -i 62 -a 0 -x {1.0 0.0 21 ------- null}
h -t 0.994533333333334 -s 1 -d 0 -p ack -e 40 -c 0 -i 62 -a 0 -x {1.0 0.0 -1 ------- null}
r -t 1.0056 -s 1 -d 0 -p ack -e 40 -c 0 -i 62 -a 0 -x {1.0 0.0 21 ------- null}
+ -t 1.0056 -s 0 -d 1 -p tcp -e 1540 -c 0 -i 63 -a 0 -x {0.0 1.0 41 ------- null}
- -t 1.0256 -s 0 -d 1 -p tcp -e 1540 -c 0 -i 35 -a 0 -x {0.0 1.0 23 ------- null}
h -t 1.0256 -s 0 -d 1 -p tcp -e 1540 -c 0 -i 35 -a 0 -x {0.0 1.0 -1 ------- null}
r -t 1.0356 -s 0 -d 1 -p tcp -e 1540 -c 0 -i 33 -a 0 -x {0.0 1.0 22 ------- null}
+ -t 1.0356 -s 1 -d 0 -p ack -e 40 -c 0 -i 64 -a 0 -x {1.0 0.0 22 ------- null}
- -t 1.0356 -s 1 -d 0 -p ack -e 40 -c 0 -i 64 -a 0 -x {1.0 0.0 22 ------- null}
h -t 1.0356 -s 1 -d 0 -p ack -e 40 -c 0 -i 64 -a 0 -x {1.0 0.0 -1 ------- null}
r -t 1.04666666666667 -s 1 -d 0 -p ack -e 40 -c 0 -i 64 -a 0 -x {1.0 0.0 22 ------- null}
+ -t 1.04666666666667 -s 0 -d 1 -p tcp -e 1540 -c 0 -i 65 -a 0 -x {0.0 1.0 42 ------- null}
- -t 1.06666666666667 -s 0 -d 1 -p tcp -e 1540 -c 0 -i 36 -a 0 -x {0.0 1.0 24 ------- null}
h -t 1.06666666666667 -s 0 -d 1 -p tcp -e 1540 -c 0 -i 36 -a 0 -x {0.0 1.0 -1 ------- null}
r -t 1.07666666666667 -s 0 -d 1 -p tcp -e 1540 -c 0 -i 35 -a 0 -x {0.0 1.0 23 ------- null}
+ -t 1.07666666666667 -s 1 -d 0 -p ack -e 40 -c 0 -i 66 -a 0 -x {1.0 0.0 23 ------- null}
- -t 1.07666666666667 -s 1 -d 0 -p ack -e 40 -c 0 -i 66 -a 0 -x {1.0 0.0 23 ------- null}
h -t 1.07666666666667 -s 1 -d 0 -p ack -e 40 -c 0 -i 66 -a 0 -x {1.0 0.0 -1 ------- null}
r -t 1.08773333333333 -s 1 -d 0 -p ack -e 40 -c 0 -i 66 -a 0 -x {1.0 0.0 23 ------- null}
+ -t 1.08773333333333 -s 0 -d 1 -p tcp -e 1540 -c 0 -i 67 -a 0 -x {0.0 1.0 43 ------- null}
- -t 1.10773333333333 -s 0 -d 1 -p tcp -e 1540 -c 0 -i 38 -a 0 -x {0.0 1.0 25 ------- null}
h -t 1.10773333333333 -s 0 -d 1 -p tcp -e 1540 -c 0 -i 38 -a 0 -x {0.0 1.0 -1 ------- null}
r -t 1.11773333333333 -s 0 -d 1 -p tcp -e 1540 -c 0 -i 36 -a 0 -x {0.0 1.0 24 ------- null}
+ -t 1.11773333333333 -s 1 -d 0 -p ack -e 40 -c 0 -i 68 -a 0 -x {1.0 0.0 24 ------- null}
- -t 1.11773333333333 -s 1 -d 0 -p ack -e 40 -c 0 -i 68 -a 0 -x {1.0 0.0 24 ------- null}
h -t 1.11773333333333 -s 1 -d 0 -p ack -e 40 -c 0 -i 68 -a 0 -x {1.0 0.0 -1 ------- null}
r -t 1.1288 -s 1 -d 0 -p ack -e 40 -c 0 -i 68 -a 0 -x {1.0 0.0 24 ------- null}
+ -t 1.1288 -s 0 -d 1 -p tcp -e 1540 -c 0 -i 69 -a 0 -x {0.0 1.0 44 ------- null}
- -t 1.1488 -s 0 -d 1 -p tcp -e 1540 -c 0 -i 39 -a 0 -x {0.0 1.0 26 ------- null}
h -t 1.1488 -s 0 -d 1 -p tcp -e 1540 -c 0 -i 39 -a 0 -x {0.0 1.0 -1 ------- null}
r -t 1.1588 -s 0 -d 1 -p tcp -e 1540 -c 0 -i 38 -a 0 -x {0.0 1.0 25 ------- null}
+ -t 1.1588 -s 1 -d 0 -p ack -e 40 -c 0 -i 70 -a 0 -x {1.0 0.0 25 ------- null}
- -t 1.1588 -s 1 -d 0 -p ack -e 40 -c 0 -i 70 -a 0 -x {1.0 0.0 25 ------- null}
h -t 1.1588 -s 1 -d 0 -p ack -e 40 -c 0 -i 70 -a 0 -x {1.0 0.0 -1 ------- null}
r -t 1.16986666666667 -s 1 -d 0 -p ack -e 40 -c 0 -i 70 -a 0 -x {1.0 0.0 25 ------- null}
+ -t 1.16986666666667 -s 0 -d 1 -p tcp -e 1540 -c 0 -i 71 -a 0 -x {0.0 1.0 45 ------- null}
- -t 1.18986666666667 -s 0 -d 1 -p tcp -e 1540 -c 0 -i 41 -a 0 -x {0.0 1.0 27 ------- null}
h -t 1.18986666666667 -s 0 -d 1 -p tcp -e 1540 -c 0 -i 41 -a 0 -x {0.0 1.0 -1 ------- null}
r -t 1.19986666666667 -s 0 -d 1 -p tcp -e 1540 -c 0 -i 39 -a 0 -x {0.0 1.0 26 ------- null}
+ -t 1.19986666666667 -s 1 -d 0 -p ack -e 40 -c 0 -i 72 -a 0 -x {1.0 0.0 26 ------- null}
- -t 1.19986666666667 -s 1 -d 0 -p ack -e 40 -c 0 -i 72 -a 0 -x {1.0 0.0 26 ------- null}
h -t 1.19986666666667 -s 1 -d 0 -p ack -e 40 -c 0 -i 72 -a 0 -x {1.0 0.0 -1 ------- null}
r -t 1.21093333333333 -s 1 -d 0 -p ack -e 40 -c 0 -i 72 -a 0 -x {1.0 0.0 26 ------- null}
+ -t 1.21093333333333 -s 0 -d 1 -p tcp -e 1540 -c 0 -i 73 -a 0 -x {0.0 1.0 46 ------- null}
- -t 1.23093333333333 -s 0 -d 1 -p tcp -e 1540 -c 0 -i 42 -a 0 -x {0.0 1.0 28 ------- null}
h -t 1.23093333333333 -s 0 -d 1 -p tcp -e 1540 -c 0 -i 42 -a 0 -x {0.0 1.0 -1 ------- null}
r -t 1.24093333333333 -s 0 -d 1 -p tcp -e 1540 -c 0 -i 41 -a 0 -x {0.0 1.0 27 ------- null}
+ -t 1.24093333333333 -s 1 -d 0 -p ack -e 40 -c 0 -i 74 -a 0 -x {1.0 0.0 27 ------- null}
- -t 1.24093333333333 -s 1 -d 0 -p ack -e 40 -c 0 -i 74 -a 0 -x {1.0 0.0 27 ------- null}
h -t 1.24093333333333 -s 1 -d 0 -p ack -e 40 -c 0 -i 74 -a 0 -x {1.0 0.0 -1 ------- null}
r -t 1.252 -s 1 -d 0 -p ack -e 40 -c 0 -i 74 -a 0 -x {1.0 0.0 27 ------- null}
+ -t 1.252 -s 0 -d 1 -p tcp -e 1540 -c 0 -i 75 -a 0 -x {0.0 1.0 47 ------- null}
- -t 1.272 -s 0 -d 1 -p tcp -e 1540 -c 0 -i 44 -a 0 -x {0.0 1.0 29 ------- null}
h -t 1.272 -s 0 -d 1 -p tcp -e 1540 -c 0 -i 44 -a 0 -x {0.0 1.0 -1 ------- null}
r -t 1.282 -s 0 -d 1 -p tcp -e 1540 -c 0 -i 42 -a 0 -x {0.0 1.0 28 ------- null}
+ -t 1.282 -s 1 -d 0 -p ack -e 40 -c 0 -i 76 -a 0 -x {1.0 0.0 28 ------- null}
- -t 1.282 -s 1 -d 0 -p ack -e 40 -c 0 -i 76 -a 0 -x {1.0 0.0 28 ------- null}
h -t 1.282 -s 1 -d 0 -p ack -e 40 -c 0 -i 76 -a 0 -x {1.0 0.0 -1 ------- null}
r -t 1.29306666666667 -s 1 -d 0 -p ack -e 40 -c 0 -i 76 -a 0 -x {1.0 0.0 28 ------- null}
+ -t 1.29306666666667 -s 0 -d 1 -p tcp -e 1540 -c 0 -i 77 -a 0 -x {0.0 1.0 48 ------- null}
- -t 1.31306666666667 -s 0 -d 1 -p tcp -e 1540 -c 0 -i 45 -a 0 -x {0.0 1.0 30 ------- null}
h -t 1.31306666666667 -s 0 -d 1 -p tcp -e 1540 -c 0 -i 45 -a 0 -x {0.0 1.0 -1 ------- null}
r -t 1.32306666666667 -s 0 -d 1 -p tcp -e 1540 -c 0 -i 44 -a 0 -x {0.0 1.0 29 ------- null}
+ -t 1.32306666666667 -s 1 -d 0 -p ack -e 40 -c 0 -i 78 -a 0 -x {1.0 0.0 29 ------- null}
- -t 1.32306666666667 -s 1 -d 0 -p ack -e 40 -c 0 -i 78 -a 0 -x {1.0 0.0 29 ------- null}
h -t 1.32306666666667 -s 1 -d 0 -p ack -e 40 -c 0 -i 78 -a 0 -x {1.0 0.0 -1 ------- null}
r -t 1.33413333333333 -s 1 -d 0 -p ack -e 40 -c 0 -i 78 -a 0 -x {1.0 0.0 29 ------- null}
+ -t 1.33413333333333 -s 0 -d 1 -p tcp -e 1540 -c 0 -i 79 -a 0 -x {0.0 1.0 49 ------- null}
- -t 1.35413333333333 -s 0 -d 1 -p tcp -e 1540 -c 0 -i 47 -a 0 -x {0.0 1.0 31 ------- null}
h -t 1.35413333333333 -s 0 -d 1 -p tcp -e 1540 -c 0 -i 47 -a 0 -x {0.0 1.0 -1 ------- null}
r -t 1.36413333333333 -s 0 -d 1 -p tcp -e 1540 -c 0 -i 45 -a 0 -x {0.0 1.0 30 ------- null}
+ -t 1.36413333333333 -s 1 -d 0 -p ack -e 40 -c 0 -i 80 -a 0 -x {1.0 0.0 30 ------- null}
- -t 1.36413333333333 -s 1 -d 0 -p ack -e 40 -c 0 -i 80 -a 0 -x {1.0 0.0 30 ------- null}
h -t 1.36413333333333 -s 1 -d 0 -p ack -e 40 -c 0 -i 80 -a 0 -x {1.0 0.0 -1 ------- null}
r -t 1.3752 -s 1 -d 0 -p ack -e 40 -c 0 -i 80 -a 0 -x {1.0 0.0 30 ------- null}
+ -t 1.3752 -s 0 -d 1 -p tcp -e 1540 -c 0 -i 81 -a 0 -x {0.0 1.0 50 ------- null}
- -t 1.3952 -s 0 -d 1 -p tcp -e 1540 -c 0 -i 48 -a 0 -x {0.0 1.0 32 ------- null}
h -t 1.3952 -s 0 -d 1 -p tcp -e 1540 -c 0 -i 48 -a 0 -x {0.0 1.0 -1 ------- null}
r -t 1.4052 -s 0 -d 1 -p tcp -e 1540 -c 0 -i 47 -a 0 -x {0.0 1.0 31 ------- null}
+ -t 1.4052 -s 1 -d 0 -p ack -e 40 -c 0 -i 82 -a 0 -x {1.0 0.0 31 ------- null}
- -t 1.4052 -s 1 -d 0 -p ack -e 40 -c 0 -i 82 -a 0 -x {1.0 0.0 31 ------- null}
h -t 1.4052 -s 1 -d 0 -p ack -e 40 -c 0 -i 82 -a 0 -x {1.0 0.0 -1 ------- null}
r -t 1.41626666666667 -s 1 -d 0 -p ack -e 40 -c 0 -i 82 -a 0 -x {1.0 0.0 31 ------- null}
+ -t 1.41626666666667 -s 0 -d 1 -p tcp -e 1540 -c 0 -i 83 -a 0 -x {0.0 1.0 51 ------- null}
- -t 1.43626666666667 -s 0 -d 1 -p tcp -e 1540 -c 0 -i 50 -a 0 -x {0.0 1.0 33 ------- null}
h -t 1.43626666666667 -s 0 -d 1 -p tcp -e 1540 -c 0 -i 50 -a 0 -x {0.0 1.0 -1 ------- null}
r -t 1.44626666666667 -s 0 -d 1 -p tcp -e 1540 -c 0 -i 48 -a 0 -x {0.0 1.0 32 ------- null}
+ -t 1.44626666666667 -s 1 -d 0 -p ack -e 40 -c 0 -i 84 -a 0 -x {1.0 0.0 32 ------- null}
- -t 1.44626666666667 -s 1 -d 0 -p ack -e 40 -c 0 -i 84 -a 0 -x {1.0 0.0 32 ------- null}
h -t 1.44626666666667 -s 1 -d 0 -p ack -e 40 -c 0 -i 84 -a 0 -x {1.0 0.0 -1 ------- null}
r -t 1.45733333333333 -s 1 -d 0 -p ack -e 40 -c 0 -i 84 -a 0 -x {1.0 0.0 32 ------- null}
+ -t 1.45733333333333 -s 0 -d 1 -p tcp -e 1540 -c 0 -i 85 -a 0 -x {0.0 1.0 52 ------- null}
- -t 1.47733333333333 -s 0 -d 1 -p tcp -e 1540 -c 0 -i 51 -a 0 -x {0.0 1.0 34 ------- null}
h -t 1.47733333333333 -s 0 -d 1 -p tcp -e 1540 -c 0 -i 51 -a 0 -x {0.0 1.0 -1 ------- null}
r -t 1.48733333333333 -s 0 -d 1 -p tcp -e 1540 -c 0 -i 50 -a 0 -x {0.0 1.0 33 ------- null}
+ -t 1.48733333333333 -s 1 -d 0 -p ack -e 40 -c 0 -i 86 -a 0 -x {1.0 0.0 33 ------- null}
- -t 1.48733333333333 -s 1 -d 0 -p ack -e 40 -c 0 -i 86 -a 0 -x {1.0 0.0 33 ------- null}
h -t 1.48733333333333 -s 1 -d 0 -p ack -e 40 -c 0 -i 86 -a 0 -x {1.0 0.0 -1 ------- null}
r -t 1.4984 -s 1 -d 0 -p ack -e 40 -c 0 -i 86 -a 0 -x {1.0 0.0 33 ------- null}
+ -t 1.4984 -s 0 -d 1 -p tcp -e 1540 -c 0 -i 87 -a 0 -x {0.0 1.0 53 ------- null}
- -t 1.5184 -s 0 -d 1 -p tcp -e 1540 -c 0 -i 53 -a 0 -x {0.0 1.0 35 ------- null}
h -t 1.5184 -s 0 -d 1 -p tcp -e 1540 -c 0 -i 53 -a 0 -x {0.0 1.0 -1 ------- null}
r -t 1.5284 -s 0 -d 1 -p tcp -e 1540 -c 0 -i 51 -a 0 -x {0.0 1.0 34 ------- null}
+ -t 1.5284 -s 1 -d 0 -p ack -e 40 -c 0 -i 88 -a 0 -x {1.0 0.0 34 ------- null}
- -t 1.5284 -s 1 -d 0 -p ack -e 40 -c 0 -i 88 -a 0 -x {1.0 0.0 34 ------- null}
h -t 1.5284 -s 1 -d 0 -p ack -e 40 -c 0 -i 88 -a 0 -x {1.0 0.0 -1 ------- null}
r -t 1.53946666666667 -s 1 -d 0 -p ack -e 40 -c 0 -i 88 -a 0 -x {1.0 0.0 34 ------- null}
+ -t 1.53946666666667 -s 0 -d 1 -p tcp -e 1540 -c 0 -i 89 -a 0 -x {0.0 1.0 54 ------- null}
- -t 1.55946666666667 -s 0 -d 1 -p tcp -e 1540 -c 0 -i 54 -a 0 -x {0.0 1.0 36 ------- null}
h -t 1.55946666666667 -s 0 -d 1 -p tcp -e 1540 -c 0 -i 54 -a 0 -x {0.0 1.0 -1 ------- null}
r -t 1.56946666666667 -s 0 -d 1 -p tcp -e 1540 -c 0 -i 53 -a 0 -x {0.0 1.0 35 ------- null}
+ -t 1.56946666666667 -s 1 -d 0 -p ack -e 40 -c 0 -i 90 -a 0 -x {1.0 0.0 35 ------- null}
- -t 1.56946666666667 -s 1 -d 0 -p ack -e 40 -c 0 -i 90 -a 0 -x {1.0 0.0 35 ------- null}
h -t 1.56946666666667 -s 1 -d 0 -p ack -e 40 -c 0 -i 90 -a 0 -x {1.0 0.0 -1 ------- null}
r -t 1.58053333333333 -s 1 -d 0 -p ack -e 40 -c 0 -i 90 -a 0 -x {1.0 0.0 35 ------- null}
+ -t 1.58053333333333 -s 0 -d 1 -p tcp -e 1540 -c 0 -i 91 -a 0 -x {0.0 1.0 55 ------- null}
- -t 1.60053333333333 -s 0 -d 1 -p tcp -e 1540 -c 0 -i 56 -a 0 -x {0.0 1.0 37 ------- null}
h -t 1.60053333333333 -s 0 -d 1 -p tcp -e 1540 -c 0 -i 56 -a 0 -x {0.0 1.0 -1 ------- null}
r -t 1.61053333333333 -s 0 -d 1 -p tcp -e 1540 -c 0 -i 54 -a 0 -x {0.0 1.0 36 ------- null}
+ -t 1.61053333333333 -s 1 -d 0 -p ack -e 40 -c 0 -i 92 -a 0 -x {1.0 0.0 36 ------- null}
- -t 1.61053333333333 -s 1 -d 0 -p ack -e 40 -c 0 -i 92 -a 0 -x {1.0 0.0 36 ------- null}
h -t 1.61053333333333 -s 1 -d 0 -p ack -e 40 -c 0 -i 92 -a 0 -x {1.0 0.0 -1 ------- null}
r -t 1.6216 -s 1 -d 0 -p ack -e 40 -c 0 -i 92 -a 0 -x {1.0 0.0 36 ------- null}
+ -t 1.6216 -s 0 -d 1 -p tcp -e 1540 -c 0 -i 93 -a 0 -x {0.0 1.0 56 ------- null}
- -t 1.6416 -s 0 -d 1 -p tcp -e 1540 -c 0 -i 57 -a 0 -x {0.0 1.0 38 ------- null}
h -t 1.6416 -s 0 -d 1 -p tcp -e 1540 -c 0 -i 57 -a 0 -x {0.0 1.0 -1 ------- null}
r -t 1.6516 -s 0 -d 1 -p tcp -e 1540 -c 0 -i 56 -a 0 -x {0.0 1.0 37 ------- null}
+ -t 1.6516 -s 1 -d 0 -p ack -e 40 -c 0 -i 94 -a 0 -x {1.0 0.0 37 ------- null}
- -t 1.6516 -s 1 -d 0 -p ack -e 40 -c 0 -i 94 -a 0 -x {1.0 0.0 37 ------- null}
h -t 1.6516 -s 1 -d 0 -p ack -e 40 -c 0 -i 94 -a 0 -x {1.0 0.0 -1 ------- null}
r -t 1.66266666666667 -s 1 -d 0 -p ack -e 40 -c 0 -i 94 -a 0 -x {1.0 0.0 37 ------- null}
+ -t 1.66266666666667 -s 0 -d 1 -p tcp -e 1540 -c 0 -i 95 -a 0 -x {0.0 1.0 57 ------- null}
- -t 1.68266666666667 -s 0 -d 1 -p tcp -e 1540 -c 0 -i 59 -a 0 -x {0.0 1.0 39 ------- null}
h -t 1.68266666666667 -s 0 -d 1 -p tcp -e 1540 -c 0 -i 59 -a 0 -x {0.0 1.0 -1 ------- null}
r -t 1.69266666666667 -s 0 -d 1 -p tcp -e 1540 -c 0 -i 57 -a 0 -x {0.0 1.0 38 ------- null}
+ -t 1.69266666666667 -s 1 -d 0 -p ack -e 40 -c 0 -i 96 -a 0 -x {1.0 0.0 38 ------- null}
- -t 1.69266666666667 -s 1 -d 0 -p ack -e 40 -c 0 -i 96 -a 0 -x {1.0 0.0 38 ------- null}
h -t 1.69266666666667 -s 1 -d 0 -p ack -e 40 -c 0 -i 96 -a 0 -x {1.0 0.0 -1 ------- null}
r -t 1.70373333333333 -s 1 -d 0 -p ack -e 40 -c 0 -i 96 -a 0 -x {1.0 0.0 38 ------- null}
+ -t 1.70373333333333 -s 0 -d 1 -p tcp -e 1540 -c 0 -i 97 -a 0 -x {0.0 1.0 58 ------- null}
- -t 1.72373333333333 -s 0 -d 1 -p tcp -e 1540 -c 0 -i 61 -a 0 -x {0.0 1.0 40 ------- null}
h -t 1.72373333333333 -s 0 -d 1 -p tcp -e 1540 -c 0 -i 61 -a 0 -x {0.0 1.0 -1 ------- null}
r -t 1.73373333333333 -s 0 -d 1 -p tcp -e 1540 -c 0 -i 59 -a 0 -x {0.0 1.0 39 ------- null}
+ -t 1.73373333333333 -s 1 -d 0 -p ack -e 40 -c 0 -i 98 -a 0 -x {1.0 0.0 39 ------- null}