+ 0.1 0 1 tcp 40 ------- 0 0.0 1.0 0 0
- 0.1 0 1 tcp 40 ------- 0 0.0 1.0 0 0
r 0.111067 0 1 tcp 40 ------- 0 0.0 1.0 0 0
+ 0.111067 1 0 ack 40 ------- 0 1.0 0.0 0 1
- 0.111067 1 0 ack 40 ------- 0 1.0 0.0 0 1
r 0.122133 1 0 ack 40 ------- 0 1.0 0.0 0 1
+ 0.122133 0 1 tcp 1540 ------- 0 0.0 1.0 1 2
- 0.122133 0 1 tcp 1540 ------- 0 0.0 1.0 1 2
+ 0.122133 0 1 tcp 1540 ------- 0 0.0 1.0 2 3
- 0.1632 0 1 tcp 1540 ------- 0 0.0 1.0 2 3
r 0.1732 0 1 tcp 1540 ------- 0 0.0 1.0 1 2
+ 0.1732 1 0 ack 40 ------- 0 1.0 0.0 1 4
- 0.1732 1 0 ack 40 ------- 0 1.0 0.0 1 4
r 0.184267 1 0 ack 40 ------- 0 1.0 0.0 1 4
+ 0.184267 0 1 tcp 1540 ------- 0 0.0 1.0 3 5
+ 0.184267 0 1 tcp 1540 ------- 0 0.0 1.0 4 6
- 0.204267 0 1 tcp 1540 ------- 0 0.0 1.0 3 5
r 0.214267 0 1 tcp 1540 ------- 0 0.0 1.0 2 3
+ 0.214267 1 0 ack 40 ------- 0 1.0 0.0 2 7
- 0.214267 1 0 ack 40 ------- 0 1.0 0.0 2 7
r 0.225333 1 0 ack 40 ------- 0 1.0 0.0 2 7
+ 0.225333 0 1 tcp 1540 ------- 0 0.0 1.0 5 8
+ 0.225333 0 1 tcp 1540 ------- 0 0.0 1.0 6 9
- 0.245333 0 1 tcp 1540 ------- 0 0.0 1.0 4 6
r 0.255333 0 1 tcp 1540 ------- 0 0.0 1.0 3 5
+ 0.255333 1 0 ack 40 ------- 0 1.0 0.0 3 10
- 0.255333 1 0 ack 40 ------- 0 1.0 0.0 3 10
r 0.2664 1 0 ack 40 ------- 0 1.0 0.0 3 10
+ 0.2664 0 1 tcp 1540 ------- 0 0.0 1.0 7 11
+ 0.2664 0 1 tcp 1540 ------- 0 0.0 1.0 8 12
- 0.2864 0 1 tcp 1540 ------- 0 0.0 1.0 5 8
r 0.2964 0 1 tcp 1540 ------- 0 0.0 1.0 4 6
+ 0.2964 1 0 ack 40 ------- 0 1.0 0.0 4 13
- 0.2964 1 0 ack 40 ------- 0 1.0 0.0 4 13
r 0.307467 1 0 ack 40 ------- 0 1.0 0.0 4 13
+ 0.307467 0 1 tcp 1540 ------- 0 0.0 1.0 9 14
+ 0.307467 0 1 tcp 1540 ------- 0 0.0 1.0 10 15
- 0.327467 0 1 tcp 1540 ------- 0 0.0 1.0 6 9
r 0.337467 0 1 tcp 1540 ------- 0 0.0 1.0 5 8
+ 0.337467 1 0 ack 40 ------- 0 1.0 0.0 5 16
- 0.337467 1 0 ack 40 ------- 0 1.0 0.0 5 16
r 0.348533 1 0 ack 40 ------- 0 1.0 0.0 5 16
+ 0.348533 0 1 tcp 1540 ------- 0 0.0 1.0 11 17
+ 0.348533 0 1 tcp 1540 ------- 0 0.0 1.0 12 18
- 0.368533 0 1 tcp 1540 ------- 0 0.0 1.0 7 11
r 0.378533 0 1 tcp 1540 ------- 0 0.0 1.0 6 9
+ 0.378533 1 0 ack 40 ------- 0 1.0 0.0 6 19
- 0.378533 1 0 ack 40 ------- 0 1.0 0.0 6 19
r 0.3896 1 0 ack 40 ------- 0 1.0 0.0 6 19
+ 0.3896 0 1 tcp 1540 ------- 0 0.0 1.0 13 20
+ 0.3896 0 1 tcp 1540 ------- 0 0.0 1.0 14 21
- 0.4096 0 1 tcp 1540 ------- 0 0.0 1.0 8 12
r 0.4196 0 1 tcp 1540 ------- 0 0.0 1.0 7 11
+ 0.4196 1 0 ack 40 ------- 0 1.0 0.0 7 22
- 0.4196 1 0 ack 40 ------- 0 1.0 0.0 7 22
r 0.430667 1 0 ack 40 ------- 0 1.0 0.0 7 22
+ 0.430667 0 1 tcp 1540 ------- 0 0.0 1.0 15 23
+ 0.430667 0 1 tcp 1540 ------- 0 0.0 1.0 16 24
- 0.450667 0 1 tcp 1540 ------- 0 0.0 1.0 9 14
r 0.460667 0 1 tcp 1540 ------- 0 0.0 1.0 8 12
+ 0.460667 1 0 ack 40 ------- 0 1.0 0.0 8 25
- 0.460667 1 0 ack 40 ------- 0 1.0 0.0 8 25
r 0.471733 1 0 ack 40 ------- 0 1.0 0.0 8 25
+ 0.471733 0 1 tcp 1540 ------- 0 0.0 1.0 17 26
+ 0.471733 0 1 tcp 1540 ------- 0 0.0 1.0 18 27
- 0.491733 0 1 tcp 1540 ------- 0 0.0 1.0 10 15
r 0.501733 0 1 tcp 1540 ------- 0 0.0 1.0 9 14
+ 0.501733 1 0 ack 40 ------- 0 1.0 0.0 9 28
- 0.501733 1 0 ack 40 ------- 0 1.0 0.0 9 28
r 0.5128 1 0 ack 40 ------- 0 1.0 0.0 9 28
+ 0.5128 0 1 tcp 1540 ------- 0 0.0 1.0 19 29
+ 0.5128 0 1 tcp 1540 ------- 0 0.0 1.0 20 30
- 0.5328 0 1 tcp 1540 ------- 0 0.0 1.0 11 17
r 0.5428 0 1 tcp 1540 ------- 0 0.0 1.0 10 15
+ 0.5428 1 0 ack 40 ------- 0 1.0 0.0 10 31
- 0.5428 1 0 ack 40 ------- 0 1.0 0.0 10 31
r 0.553867 1 0 ack 40 ------- 0 1.0 0.0 10 31
+ 0.553867 0 1 tcp 1540 ------- 0 0.0 1.0 21 32
+ 0.553867 0 1 tcp 1540 ------- 0 0.0 1.0 22 33
- 0.573867 0 1 tcp 1540 ------- 0 0.0 1.0 12 18
r 0.583867 0 1 tcp 1540 ------- 0 0.0 1.0 11 17
+ 0.583867 1 0 ack 40 ------- 0 1.0 0.0 11 34
- 0.583867 1 0 ack 40 ------- 0 1.0 0.0 11 34
r 0.594933 1 0 ack 40 ------- 0 1.0 0.0 11 34
+ 0.594933 0 1 tcp 1540 ------- 0 0.0 1.0 23 35
+ 0.594933 0 1 tcp 1540 ------- 0 0.0 1.0 24 36
- 0.614933 0 1 tcp 1540 ------- 0 0.0 1.0 13 20
r 0.624933 0 1 tcp 1540 ------- 0 0.0 1.0 12 18
+ 0.624933 1 0 ack 40 ------- 0 1.0 0.0 12 37
- 0.624933 1 0 ack 40 ------- 0 1.0 0.0 12 37
r 0.636 1 0 ack 40 ------- 0 1.0 0.0 12 37
+ 0.636 0 1 tcp 1540 ------- 0 0.0 1.0 25 38
+ 0.636 0 1 tcp 1540 ------- 0 0.0 1.0 26 39
- 0.656 0 1 tcp 1540 ------- 0 0.0 1.0 14 21
r 0.666 0 1 tcp 1540 ------- 0 0.0 1.0 13 20
+ 0.666 1 0 ack 40 ------- 0 1.0 0.0 13 40
- 0.666 1 0 ack 40 ------- 0 1.0 0.0 13 40
r 0.677067 1 0 ack 40 ------- 0 1.0 0.0 13 40
+ 0.677067 0 1 tcp 1540 ------- 0 0.0 1.0 27 41
+ 0.677067 0 1 tcp 1540 ------- 0 0.0 1.0 28 42
- 0.697067 0 1 tcp 1540 ------- 0 0.0 1.0 15 23
r 0.707067 0 1 tcp 1540 ------- 0 0.0 1.0 14 21
+ 0.707067 1 0 ack 40 ------- 0 1.0 0.0 14 43
- 0.707067 1 0 ack 40 ------- 0 1.0 0.0 14 43
r 0.718133 1 0 ack 40 ------- 0 1.0 0.0 14 43
+ 0.718133 0 1 tcp 1540 ------- 0 0.0 1.0 29 44
+ 0.718133 0 1 tcp 1540 ------- 0 0.0 1.0 30 45
- 0.738133 0 1 tcp 1540 ------- 0 0.0 1.0 16 24
r 0.748133 0 1 tcp 1540 ------- 0 0.0 1.0 15 23
+ 0.748133 1 0 ack 40 ------- 0 1.0 0.0 15 46
- 0.748133 1 0 ack 40 ------- 0 1.0 0.0 15 46
r 0.7592 1 0 ack 40 ------- 0 1.0 0.0 15 46
+ 0.7592 0 1 tcp 1540 ------- 0 0.0 1.0 31 47
+ 0.7592 0 1 tcp 1540 ------- 0 0.0 1.0 32 48
- 0.7792 0 1 tcp 1540 ------- 0 0.0 1.0 17 26
r 0.7892 0 1 tcp 1540 ------- 0 0.0 1.0 16 24
+ 0.7892 1 0 ack 40 ------- 0 1.0 0.0 16 49
- 0.7892 1 0 ack 40 ------- 0 1.0 0.0 16 49
r 0.800267 1 0 ack 40 ------- 0 1.0 0.0 16 49
+ 0.800267 0 1 tcp 1540 ------- 0 0.0 1.0 33 50
+ 0.800267 0 1 tcp 1540 ------- 0 0.0 1.0 34 51
- 0.820267 0 1 tcp 1540 ------- 0 0.0 1.0 18 27
r 0.830267 0 1 tcp 1540 ------- 0 0.0 1.0 17 26
+ 0.830267 1 0 ack 40 ------- 0 1.0 0.0 17 52
- 0.830267 1 0 ack 40 ------- 0 1.0 0.0 17 52
r 0.841333 1 0 ack 40 ------- 0 1.0 0.0 17 52
+ 0.841333 0 1 tcp 1540 ------- 0 0.0 1.0 35 53
+ 0.841333 0 1 tcp 1540 ------- 0 0.0 1.0 36 54
- 0.861333 0 1 tcp 1540 ------- 0 0.0 1.0 19 29
r 0.871333 0 1 tcp 1540 ------- 0 0.0 1.0 18 27
+ 0.871333 1 0 ack 40 ------- 0 1.0 0.0 18 55
- 0.871333 1 0 ack 40 ------- 0 1.0 0.0 18 55
r 0.8824 1 0 ack 40 ------- 0 1.0 0.0 18 55
+ 0.8824 0 1 tcp 1540 ------- 0 0.0 1.0 37 56
+ 0.8824 0 1 tcp 1540 ------- 0 0.0 1.0 38 57
- 0.9024 0 1 tcp 1540 ------- 0 0.0 1.0 20 30
r 0.9124 0 1 tcp 1540 ------- 0 0.0 1.0 19 29
+ 0.9124 1 0 ack 40 ------- 0 1.0 0.0 19 58
- 0.9124 1 0 ack 40 ------- 0 1.0 0.0 19 58
r 0.923467 1 0 ack 40 ------- 0 1.0 0.0 19 58
+ 0.923467 0 1 tcp 1540 ------- 0 0.0 1.0 39 59
- 0.943467 0 1 tcp 1540 ------- 0 0.0 1.0 21 32
r 0.953467 0 1 tcp 1540 ------- 0 0.0 1.0 20 30
+ 0.953467 1 0 ack 40 ------- 0 1.0 0.0 20 60
- 0.953467 1 0 ack 40 ------- 0 1.0 0.0 20 60
r 0.964533 1 0 ack 40 ------- 0 1.0 0.0 20 60
+ 0.964533 0 1 tcp 1540 ------- 0 0.0 1.0 40 61
- 0.984533 0 1 tcp 1540 ------- 0 0.0 1.0 22 33
r 0.994533 0 1 tcp 1540 ------- 0 0.0 1.0 21 32
+ 0.994533 1 0 ack 40 ------- 0 1.0 0.0 21 62
- 0.994533 1 0 ack 40 ------- 0 1.0 0.0 21 62
r 1.0056 1 0 ack 40 ------- 0 1.0 0.0 21 62
+ 1.0056 0 1 tcp 1540 ------- 0 0.0 1.0 41 63
- 1.0256 0 1 tcp 1540 ------- 0 0.0 1.0 23 35
r 1.0356 0 1 tcp 1540 ------- 0 0.0 1.0 22 33
+ 1.0356 1 0 ack 40 ------- 0 1.0 0.0 22 64
- 1.0356 1 0 ack 40 ------- 0 1.0 0.0 22 64
r 1.046667 1 0 ack 40 ------- 0 1.0 0.0 22 64
+ 1.046667 0 1 tcp 1540 ------- 0 0.0 1.0 42 65
- 1.066667 0 1 tcp 1540 ------- 0 0.0 1.0 24 36
r 1.076667 0 1 tcp 1540 ------- 0 0.0 1.0 23 35
+ 1.076667 1 0 ack 40 ------- 0 1.0 0.0 23 66
- 1.076667 1 0 ack 40 ------- 0 1.0 0.0 23 66
r 1.087733 1 0 ack 40 ------- 0 1.0 0.0 23 66
+ 1.087733 0 1 tcp 1540 ------- 0 0.0 1.0 43 67
- 1.107733 0 1 tcp 1540 ------- 0 0.0 1.0 25 38
r 1.117733 0 1 tcp 1540 ------- 0 0.0 1.0 24 36
+ 1.117733 1 0 ack 40 ------- 0 1.0 0.0 24 68
- 1.117733 1 0 ack 40 ------- 0 1.0 0.0 24 68
r 1.1288 1 0 ack 40 ------- 0 1.0 0.0 24 68
+ 1.1288 0 1 tcp 1540 ------- 0 0.0 1.0 44 69
- 1.1488 0 1 tcp 1540 ------- 0 0.0 1.0 26 39
r 1.1588 0 1 tcp 1540 ------- 0 0.0 1.0 25 38
+ 1.1588 1 0 ack 40 ------- 0 1.0 0.0 25 70
- 1.1588 1 0 ack 40 ------- 0 1.0 0.0 25 70
r 1.169867 1 0 ack 40 ------- 0 1.0 0.0 25 70
+ 1.169867 0 1 tcp 1540 ------- 0 0.0 1.0 45 71
- 1.189867 0 1 tcp 1540 ------- 0 0.0 1.0 27 41
r 1.199867 0 1 tcp 1540 ------- 0 0.0 1.0 26 39
+ 1.199867 1 0 ack 40 ------- 0 1.0 0.0 26 72
- 1.199867 1 0 ack 40 ------- 0 1.0 0.0 26 72
r 1.210933 1 0 ack 40 ------- 0 1.0 0.0 26 72
+ 1.210933 0 1 tcp 1540 ------- 0 0.0 1.0 46 73
- 1.230933 0 1 tcp 1540 ------- 0 0.0 1.0 28 42
r 1.240933 0 1 tcp 1540 ------- 0 0.0 1.0 27 41
+ 1.240933 1 0 ack 40 ------- 0 1.0 0.0 27 74
- 1.240933 1 0 ack 40 ------- 0 1.0 0.0 27 74
r 1.252 1 0 ack 40 ------- 0 1.0 0.0 27 74
+ 1.252 0 1 tcp 1540 ------- 0 0.0 1.0 47 75
- 1.272 0 1 tcp 1540 ------- 0 0.0 1.0 29 44
r 1.282 0 1 tcp 1540 ------- 0 0.0 1.0 28 42
+ 1.282 1 0 ack 40 ------- 0 1.0 0.0 28 76
- 1.282 1 0 ack 40 ------- 0 1.0 0.0 28 76
r 1.293067 1 0 ack 40 ------- 0 1.0 0.0 28 76
+ 1.293067 0 1 tcp 1540 ------- 0 0.0 1.0 48 77
- 1.313067 0 1 tcp 1540 ------- 0 0.0 1.0 30 45
r 1.323067 0 1 tcp 1540 ------- 0 0.0 1.0 29 44
+ 1.323067 1 0 ack 40 ------- 0 1.0 0.0 29 78
- 1.323067 1 0 ack 40 ------- 0 1.0 0.0 29 78
r 1.334133 1 0 ack 40 ------- 0 1.0 0.0 29 78
+ 1.334133 0 1 tcp 1540 ------- 0 0.0 1.0 49 79
- 1.354133 0 1 tcp 1540 ------- 0 0.0 1.0 31 47
r 1.364133 0 1 tcp 1540 ------- 0 0.0 1.0 30 45
+ 1.364133 1 0 ack 40 ------- 0 1.0 0.0 30 80
- 1.364133 1 0 ack 40 ------- 0 1.0 0.0 30 80
r 1.3752 1 0 ack 40 ------- 0 1.0 0.0 30 80
+ 1.3752 0 1 tcp 1540 ------- 0 0.0 1.0 50 81
- 1.3952 0 1 tcp 1540 ------- 0 0.0 1.0 32 48
r 1.4052 0 1 tcp 1540 ------- 0 0.0 1.0 31 47
+ 1.4052 1 0 ack 40 ------- 0 1.0 0.0 31 82
- 1.4052 1 0 ack 40 ------- 0 1.0 0.0 31 82
r 1.416267 1 0 ack 40 ------- 0 1.0 0.0 31 82
+ 1.416267 0 1 tcp 1540 ------- 0 0.0 1.0 51 83
- 1.436267 0 1 tcp 1540 ------- 0 0.0 1.0 33 50
r 1.446267 0 1 tcp 1540 ------- 0 0.0 1.0 32 48
+ 1.446267 1 0 ack 40 ------- 0 1.0 0.0 32 84
- 1.446267 1 0 ack 40 ------- 0 1.0 0.0 32 84
r 1.457333 1 0 ack 40 ------- 0 1.0 0.0 32 84
+ 1.457333 0 1 tcp 1540 ------- 0 0.0 1.0 52 85
- 1.477333 0 1 tcp 1540 ------- 0 0.0 1.0 34 51
r 1.487333 0 1 tcp 1540 ------- 0 0.0 1.0 33 50
+ 1.487333 1 0 ack 40 ------- 0 1.0 0.0 33 86
- 1.487333 1 0 ack 40 ------- 0 1.0 0.0 33 86
r 1.4984 1 0 ack 40 ------- 0 1.0 0.0 33 86
+ 1.4984 0 1 tcp 1540 ------- 0 0.0 1.0 53 87
- 1.5184 0 1 tcp 1540 ------- 0 0.0 1.0 35 53
r 1.5284 0 1 tcp 1540 ------- 0 0.0 1.0 34 51
+ 1.5284 1 0 ack 40 ------- 0 1.0 0.0 34 88
- 1.5284 1 0 ack 40 ------- 0 1.0 0.0 34 88
r 1.539467 1 0 ack 40 ------- 0 1.0 0.0 34 88
+ 1.539467 0 1 tcp 1540 ------- 0 0.0 1.0 54 89
- 1.559467 0 1 tcp 1540 ------- 0 0.0 1.0 36 54
r 1.569467 0 1 tcp 1540 ------- 0 0.0 1.0 35 53
+ 1.569467 1 0 ack 40 ------- 0 1.0 0.0 35 90
- 1.569467 1 0 ack 40 ------- 0 1.0 0.0 35 90
r 1.580533 1 0 ack 40 ------- 0 1.0 0.0 35 90
+ 1.580533 0 1 tcp 1540 ------- 0 0.0 1.0 55 91
- 1.600533 0 1 tcp 1540 ------- 0 0.0 1.0 37 56
r 1.610533 0 1 tcp 1540 ------- 0 0.0 1.0 36 54
+ 1.610533 1 0 ack 40 ------- 0 1.0 0.0 36 92
- 1.610533 1 0 ack 40 ------- 0 1.0 0.0 36 92
r 1.6216 1 0 ack 40 ------- 0 1.0 0.0 36 92
+ 1.6216 0 1 tcp 1540 ------- 0 0.0 1.0 56 93
- 1.6416 0 1 tcp 1540 ------- 0 0.0 1.0 38 57
r 1.6516 0 1 tcp 1540 ------- 0 0.0 1.0 37 56
+ 1.6516 1 0 ack 40 ------- 0 1.0 0.0 37 94
- 1.6516 1 0 ack 40 ------- 0 1.0 0.0 37 94
r 1.662667 1 0 ack 40 ------- 0 1.0 0.0 37 94
+ 1.662667 0 1 tcp 1540 ------- 0 0.0 1.0 57 95
- 1.682667 0 1 tcp 1540 ------- 0 0.0 1.0 39 59
r 1.692667 0 1 tcp 1540 ------- 0 0.0 1.0 38 57
+ 1.692667 1 0 ack 40 ------- 0 1.0 0.0 38 96
- 1.692667 1 0 ack 40 ------- 0 1.0 0.0 38 96
r 1.703733 1 0 ack 40 ------- 0 1.0 0.0 38 96
+ 1.703733 0 1 tcp 1540 ------- 0 0.0 1.0 58 97
- 1.723733 0 1 tcp 1540 ------- 0 0.0 1.0 40 61
r 1.733733 0 1 tcp 1540 ------- 0 0.0 1.0 39 59
+ 1.733733 1 0 ack 40 ------- 0 1.0 0.0 39 98
- 1.733733 1 0 ack 40 ------- 0 1.0 0.0 39 98
r 1.7448 1 0 ack 40 ------- 0 1.0 0.0 39 98
+ 1.7448 0 1 tcp 1540 ------- 0 0.0 1.0 59 99
- 1.7648 0 1 tcp 1540 ------- 0 0.0 1.0 41 63
r 1.7748 0 1 tcp 1540 ------- 0 0.0 1.0 40 61
+ 1.7748 1 0 ack 40 ------- 0 1.0 0.0 40 100
- 1.7748 1 0 ack 40 ------- 0 1.0 0.0 40 100
r 1.785867 1 0 ack 40 ------- 0 1.0 0.0 40 100
+ 1.785867 0 1 tcp 1540 ------- 0 0.0 1.0 60 101
- 1.805867 0 1 tcp 1540 ------- 0 0.0 1.0 42 65
r 1.815867 0 1 tcp 1540 ------- 0 0.0 1.0 41 63
+ 1.815867 1 0 ack 40 ------- 0 1.0 0.0 41 102
- 1.815867 1 0 ack 40 ------- 0 1.0 0.0 41 102
r 1.826933 1 0 ack 40 ------- 0 1.0 0.0 41 102
+ 1.826933 0 1 tcp 1540 ------- 0 0.0 1.0 61 103
- 1.846933 0 1 tcp 1540 ------- 0 0.0 1.0 43 67
r 1.856933 0 1 tcp 1540 ------- 0 0.0 1.0 42 65
+ 1.856933 1 0 ack 40 ------- 0 1.0 0.0 42 104
- 1.856933 1 0 ack 40 ------- 0 1.0 0.0 42 104
r 1.868 1 0 ack 40 ------- 0 1.0 0.0 42 104
+ 1.868 0 1 tcp 1540 ------- 0 0.0 1.0 62 105
- 1.888 0 1 tcp 1540 ------- 0 0.0 1.0 44 69
r 1.898 0 1 tcp 1540 ------- 0 0.0 1.0 43 67
+ 1.898 1 0 ack 40 ------- 0 1.0 0.0 43 106
- 1.898 1 0 ack 40 ------- 0 1.0 0.0 43 106
r 1.909067 1 0 ack 40 ------- 0 1.0 0.0 43 106
+ 1.909067 0 1 tcp 1540 ------- 0 0.0 1.0 63 107
- 1.929067 0 1 tcp 1540 ------- 0 0.0 1.0 45 71
r 1.939067 0 1 tcp 1540 ------- 0 0.0 1.0 44 69
+ 1.939067 1 0 ack 40 ------- 0 1.0 0.0 44 108
- 1.939067 1 0 ack 40 ------- 0 1.0 0.0 44 108
r 1.950133 1 0 ack 40 ------- 0 1.0 0.0 44 108
+ 1.950133 0 1 tcp 1540 ------- 0 0.0 1.0 64 109
- 1.970133 0 1 tcp 1540 ------- 0 0.0 1.0 46 73
r 1.980133 0 1 tcp 1540 ------- 0 0.0 1.0 45 71
+ 1.980133 1 0 ack 40 ------- 0 1.0 0.0 45 110
- 1.980133 1 0 ack 40 ------- 0 1.0 0.0 45 110
r 1.9912 1 0 ack 40 ------- 0 1.0 0.0 45 110
+ 1.9912 0 1 tcp 1540 ------- 0 0.0 1.0 65 111
- 2.0112 0 1 tcp 1540 ------- 0 0.0 1.0 47 75
r 2.0212 0 1 tcp 1540 ------- 0 0.0 1.0 46 73
+ 2.0212 1 0 ack 40 ------- 0 1.0 0.0 46 112
- 2.0212 1 0 ack 40 ------- 0 1.0 0.0 46 112
r 2.032267 1 0 ack 40 ------- 0 1.0 0.0 46 112
+ 2.032267 0 1 tcp 1540 ------- 0 0.0 1.0 66 113
- 2.052267 0 1 tcp 1540 ------- 0 0.0 1.0 48 77
r 2.062267 0 1 tcp 1540 ------- 0 0.0 1.0 47 75
+ 2.062267 1 0 ack 40 ------- 0 1.0 0.0 47 114
- 2.062267 1 0 ack 40 ------- 0 1.0 0.0 47 114
r 2.073333 1 0 ack 40 ------- 0 1.0 0.0 47 114
+ 2.073333 0 1 tcp 1540 ------- 0 0.0 1.0 67 115
- 2.093333 0 1 tcp 1540 ------- 0 0.0 1.0 49 79
r 2.103333 0 1 tcp 1540 ------- 0 0.0 1.0 48 77
+ 2.103333 1 0 ack 40 ------- 0 1.0 0.0 48 116
- 2.103333 1 0 ack 40 ------- 0 1.0 0.0 48 116
r 2.1144 1 0 ack 40 ------- 0 1.0 0.0 48 116
+ 2.1144 0 1 tcp 1540 ------- 0 0.0 1.0 68 117
- 2.1344 0 1 tcp 1540 ------- 0 0.0 1.0 50 81
r 2.1444 0 1 tcp 1540 ------- 0 0.0 1.0 49 79
+ 2.1444 1 0 ack 40 ------- 0 1.0 0.0 49 118
- 2.1444 1 0 ack 40 ------- 0 1.0 0.0 49 118
r 2.155467 1 0 ack 40 ------- 0 1.0 0.0 49 118
+ 2.155467 0 1 tcp 1540 ------- 0 0.0 1.0 69 119
- 2.175467 0 1 tcp 1540 ------- 0 0.0 1.0 51 83
r 2.185467 0 1 tcp 1540 ------- 0 0.0 1.0 50 81
+ 2.185467 1 0 ack 40 ------- 0 1.0 0.0 50 120
- 2.185467 1 0 ack 40 ------- 0 1.0 0.0 50 120
r 2.196533 1 0 ack 40 ------- 0 1.0 0.0 50 120
+ 2.196533 0 1 tcp 1540 ------- 0 0.0 1.0 70 121
- 2.216533 0 1 tcp 1540 ------- 0 0.0 1.0 52 85
r 2.226533 0 1 tcp 1540 ------- 0 0.0 1.0 51 83
+ 2.226533 1 0 ack 40 ------- 0 1.0 0.0 51 122
- 2.226533 1 0 ack 40 ------- 0 1.0 0.0 51 122
r 2.2376 1 0 ack 40 ------- 0 1.0 0.0 51 122
+ 2.2376 0 1 tcp 1540 ------- 0 0.0 1.0 71 123
- 2.2576 0 1 tcp 1540 ------- 0 0.0 1.0 53 87
r 2.2676 0 1 tcp 1540 ------- 0 0.0 1.0 52 85
+ 2.2676 1 0 ack 40 ------- 0 1.0 0.0 52 124
- 2.2676 1 0 ack 40 ------- 0 1.0 0.0 52 124
r 2.278667 1 0 ack 40 ------- 0 1.0 0.0 52 124
+ 2.278667 0 1 tcp 1540 ------- 0 0.0 1.0 72 125
- 2.298667 0 1 tcp 1540 ------- 0 0.0 1.0 54 89
r 2.308667 0 1 tcp 1540 ------- 0 0.0 1.0 53 87
+ 2.308667 1 0 ack 40 ------- 0 1.0 0.0 53 126
- 2.308667 1 0 ack 40 ------- 0 1.0 0.0 53 126
r 2.319733 1 0 ack 40 ------- 0 1.0 0.0 53 126
+ 2.319733 0 1 tcp 1540 ------- 0 0.0 1.0 73 127
- 2.339733 0 1 tcp 1540 ------- 0 0.0 1.0 55 91
r 2.349733 0 1 tcp 1540 ------- 0 0.0 1.0 54 89
+ 2.349733 1 0 ack 40 ------- 0 1.0 0.0 54 128
- 2.349733 1 0 ack 40 ------- 0 1.0 0.0 54 128
r 2.3608 1 0 ack 40 ------- 0 1.0 0.0 54 128
+ 2.3608 0 1 tcp 1540 ------- 0 0.0 1.0 74 129
- 2.3808 0 1 tcp 1540 ------- 0 0.0 1.0 56 93
r 2.3908 0 1 tcp 1540 ------- 0 0.0 1.0 55 91
+ 2.3908 1 0 ack 40 ------- 0 1.0 0.0 55 130
- 2.3908 1 0 ack 40 ------- 0 1.0 0.0 55 130
r 2.401867 1 0 ack 40 ------- 0 1.0 0.0 55 130
+ 2.401867 0 1 tcp 1540 ------- 0 0.0 1.0 75 131
- 2.421867 0 1 tcp 1540 ------- 0 0.0 1.0 57 95
r 2.431867 0 1 tcp 1540 ------- 0 0.0 1.0 56 93
+ 2.431867 1 0 ack 40 ------- 0 1.0 0.0 56 132
- 2.431867 1 0 ack 40 ------- 0 1.0 0.0 56 132
r 2.442933 1 0 ack 40 ------- 0 1.0 0.0 56 132
+ 2.442933 0 1 tcp 1540 ------- 0 0.0 1.0 76 133
- 2.462933 0 1 tcp 1540 ------- 0 0.0 1.0 58 97
r 2.472933 0 1 tcp 1540 ------- 0 0.0 1.0 57 95
+ 2.472933 1 0 ack 40 ------- 0 1.0 0.0 57 134
- 2.472933 1 0 ack 40 ------- 0 1.0 0.0 57 134
r 2.484 1 0 ack 40 ------- 0 1.0 0.0 57 134
+ 2.484 0 1 tcp 1540 ------- 0 0.0 1.0 77 135
- 2.504 0 1 tcp 1540 ------- 0 0.0 1.0 59 99
r 2.514 0 1 tcp 1540 ------- 0 0.0 1.0 58 97
+ 2.514 1 0 ack 40 ------- 0 1.0 0.0 58 136
- 2.514 1 0 ack 40 ------- 0 1.0 0.0 58 136
r 2.525067 1 0 ack 40 ------- 0 1.0 0.0 58 136
+ 2.525067 0 1 tcp 1540 ------- 0 0.0 1.0 78 137
- 2.545067 0 1 tcp 1540 ------- 0 0.0 1.0 60 101
r 2.555067 0 1 tcp 1540 ------- 0 0.0 1.0 59 99
+ 2.555067 1 0 ack 40 ------- 0 1.0 0.0 59 138
- 2.555067 1 0 ack 40 ------- 0 1.0 0.0 59 138
r 2.566133 1 0 ack 40 ------- 0 1.0 0.0 59 138
+ 2.566133 0 1 tcp 1540 ------- 0 0.0 1.0 79 139
- 2.586133 0 1 tcp 1540 ------- 0 0.0 1.0 61 103
r 2.596133 0 1 tcp 1540 ------- 0 0.0 1.0 60 101
+ 2.596133 1 0 ack 40 ------- 0 1.0 0.0 60 140
- 2.596133 1 0 ack 40 ------- 0 1.0 0.0 60 140
r 2.6072 1 0 ack 40 ------- 0 1.0 0.0 60 140
+ 2.6072 0 1 tcp 1540 ------- 0 0.0 1.0 80 141
- 2.6272 0 1 tcp 1540 ------- 0 0.0 1.0 62 105
r 2.6372 0 1 tcp 1540 ------- 0 0.0 1.0 61 103
+ 2.6372 1 0 ack 40 ------- 0 1.0 0.0 61 142
- 2.6372 1 0 ack 40 ------- 0 1.0 0.0 61 142
r 2.648267 1 0 ack 40 ------- 0 1.0 0.0 61 142
+ 2.648267 0 1 tcp 1540 ------- 0 0.0 1.0 81 143
- 2.668267 0 1 tcp 1540 ------- 0 0.0 1.0 63 107
r 2.678267 0 1 tcp 1540 ------- 0 0.0 1.0 62 105
+ 2.678267 1 0 ack 40 ------- 0 1.0 0.0 62 144
- 2.678267 1 0 ack 40 ------- 0 1.0 0.0 62 144
r 2.689333 1 0 ack 40 ------- 0 1.0 0.0 62 144
+ 2.689333 0 1 tcp 1540 ------- 0 0.0 1.0 82 145
- 2.709333 0 1 tcp 1540 ------- 0 0.0 1.0 64 109
r 2.719333 0 1 tcp 1540 ------- 0 0.0 1.0 63 107
+ 2.719333 1 0 ack 40 ------- 0 1.0 0.0 63 146
- 2.719333 1 0 ack 40 ------- 0 1.0 0.0 63 146
r 2.7304 1 0 ack 40 ------- 0 1.0 0.0 63 146
+ 2.7304 0 1 tcp 1540 ------- 0 0.0 1.0 83 147
- 2.7504 0 1 tcp 1540 ------- 0 0.0 1.0 65 111
r 2.7604 0 1 tcp 1540 ------- 0 0.0 1.0 64 109
+ 2.7604 1 0 ack 40 ------- 0 1.0 0.0 64 148
- 2.7604 1 0 ack 40 ------- 0 1.0 0.0 64 148
r 2.771467 1 0 ack 40 ------- 0 1.0 0.0 64 148
+ 2.771467 0 1 tcp 1540 ------- 0 0.0 1.0 84 149
- 2.791467 0 1 tcp 1540 ------- 0 0.0 1.0 66 113
r 2.801467 0 1 tcp 1540 ------- 0 0.0 1.0 65 111
+ 2.801467 1 0 ack 40 ------- 0 1.0 0.0 65 150
- 2.801467 1 0 ack 40 ------- 0 1.0 0.0 65 150
r 2.812533 1 0 ack 40 ------- 0 1.0 0.0 65 150
+ 2.812533 0 1 tcp 1540 ------- 0 0.0 1.0 85 151
- 2.832533 0 1 tcp 1540 ------- 0 0.0 1.0 67 115
r 2.842533 0 1 tcp 1540 ------- 0 0.0 1.0 66 113
+ 2.842533 1 0 ack 40 ------- 0 1.0 0.0 66 152
- 2.842533 1 0 ack 40 ------- 0 1.0 0.0 66 152
r 2.8536 1 0 ack 40 ------- 0 1.0 0.0 66 152
+ 2.8536 0 1 tcp 1540 ------- 0 0.0 1.0 86 153
- 2.8736 0 1 tcp 1540 ------- 0 0.0 1.0 68 117
r 2.8836 0 1 tcp 1540 ------- 0 0.0 1.0 67 115
+ 2.8836 1 0 ack 40 ------- 0 1.0 0.0 67 154
- 2.8836 1 0 ack 40 ------- 0 1.0 0.0 67 154
r 2.894667 1 0 ack 40 ------- 0 1.0 0.0 67 154
+ 2.894667 0 1 tcp 1540 ------- 0 0.0 1.0 87 155
- 2.914667 0 1 tcp 1540 ------- 0 0.0 1.0 69 119
r 2.924667 0 1 tcp 1540 ------- 0 0.0 1.0 68 117
+ 2.924667 1 0 ack 40 ------- 0 1.0 0.0 68 156
- 2.924667 1 0 ack 40 ------- 0 1.0 0.0 68 156
r 2.935733 1 0 ack 40 ------- 0 1.0 0.0 68 156
+ 2.935733 0 1 tcp 1540 ------- 0 0.0 1.0 88 157
- 2.955733 0 1 tcp 1540 ------- 0 0.0 1.0 70 121
r 2.965733 0 1 tcp 1540 ------- 0 0.0 1.0 69 119
+ 2.965733 1 0 ack 40 ------- 0 1.0 0.0 69 158
- 2.965733 1 0 ack 40 ------- 0 1.0 0.0 69 158
r 2.9768 1 0 ack 40 ------- 0 1.0 0.0 69 158
+ 2.9768 0 1 tcp 1540 ------- 0 0.0 1.0 89 159
- 2.9968 0 1 tcp 1540 ------- 0 0.0 1.0 71 123
r 3.0068 0 1 tcp 1540 ------- 0 0.0 1.0 70 121
+ 3.0068 1 0 ack 40 ------- 0 1.0 0.0 70 160
- 3.0068 1 0 ack 40 ------- 0 1.0 0.0 70 160
r 3.017867 1 0 ack 40 ------- 0 1.0 0.0 70 160
+ 3.017867 0 1 tcp 1540 ------- 0 0.0 1.0 90 161
- 3.037867 0 1 tcp 1540 ------- 0 0.0 1.0 72 125
r 3.047867 0 1 tcp 1540 ------- 0 0.0 1.0 71 123
+ 3.047867 1 0 ack 40 ------- 0 1.0 0.0 71 162
- 3.047867 1 0 ack 40 ------- 0 1.0 0.0 71 162
r 3.058933 1 0 ack 40 ------- 0 1.0 0.0 71 162
+ 3.058933 0 1 tcp 1540 ------- 0 0.0 1.0 91 163
- 3.078933 0 1 tcp 1540 ------- 0 0.0 1.0 73 127
r 3.088933 0 1 tcp 1540 ------- 0 0.0 1.0 72 125
+ 3.088933 1 0 ack 40 ------- 0 1.0 0.0 72 164
- 3.088933 1 0 ack 40 ------- 0 1.0 0.0 72 164
r 3.1 1 0 ack 40 ------- 0 1.0 0.0 72 164
+ 3.1 0 1 tcp 1540 ------- 0 0.0 1.0 92 165
- 3.12 0 1 tcp 1540 ------- 0 0.0 1.0 74 129
r 3.13 0 1 tcp 1540 ------- 0 0.0 1.0 73 127
+ 3.13 1 0 ack 40 ------- 0 1.0 0.0 73 166
- 3.13 1 0 ack 40 ------- 0 1.0 0.0 73 166
r 3.141067 1 0 ack 40 ------- 0 1.0 0.0 73 166
+ 3.141067 0 1 tcp 1540 ------- 0 0.0 1.0 93 167
- 3.161067 0 1 tcp 1540 ------- 0 0.0 1.0 75 131
r 3.171067 0 1 tcp 1540 ------- 0 0.0 1.0 74 129
+ 3.171067 1 0 ack 40 ------- 0 1.0 0.0 74 168
- 3.171067 1 0 ack 40 ------- 0 1.0 0.0 74 168
r 3.182133 1 0 ack 40 ------- 0 1.0 0.0 74 168
+ 3.182133 0 1 tcp 1540 ------- 0 0.0 1.0 94 169
- 3.202133 0 1 tcp 1540 ------- 0 0.0 1.0 76 133
r 3.212133 0 1 tcp 1540 ------- 0 0.0 1.0 75 131
+ 3.212133 1 0 ack 40 ------- 0 1.0 0.0 75 170
- 3.212133 1 0 ack 40 ------- 0 1.0 0.0 75 170
r 3.2232 1 0 ack 40 ------- 0 1.0 0.0 75 170
+ 3.2232 0 1 tcp 1540 ------- 0 0.0 1.0 95 171
- 3.2432 0 1 tcp 1540 ------- 0 0.0 1.0 77 135
r 3.2532 0 1 tcp 1540 ------- 0 0.0 1.0 76 133
+ 3.2532 1 0 ack 40 ------- 0 1.0 0.0 76 172
- 3.2532 1 0 ack 40 ------- 0 1.0 0.0 76 172
r 3.264267 1 0 ack 40 ------- 0 1.0 0.0 76 172
+ 3.264267 0 1 tcp 1540 ------- 0 0.0 1.0 96 173
- 3.284267 0 1 tcp 1540 ------- 0 0.0 1.0 78 137
r 3.294267 0 1 tcp 1540 ------- 0 0.0 1.0 77 135
+ 3.294267 1 0 ack 40 ------- 0 1.0 0.0 77 174
- 3.294267 1 0 ack 40 ------- 0 1.0 0.0 77 174
r 3.305333 1 0 ack 40 ------- 0 1.0 0.0 77 174
+ 3.305333 0 1 tcp 1540 ------- 0 0.0 1.0 97 175
- 3.325333 0 1 tcp 1540 ------- 0 0.0 1.0 79 139
r 3.335333 0 1 tcp 1540 ------- 0 0.0 1.0 78 137
+ 3.335333 1 0 ack 40 ------- 0 1.0 0.0 78 176
- 3.335333 1 0 ack 40 ------- 0 1.0 0.0 78 176
r 3.3464 1 0 ack 40 ------- 0 1.0 0.0 78 176
+ 3.3464 0 1 tcp 1540 ------- 0 0.0 1.0 98 177
- 3.3664 0 1 tcp 1540 ------- 0 0.0 1.0 80 141
r 3.3764 0 1 tcp 1540 ------- 0 0.0 1.0 79 139
+ 3.3764 1 0 ack 40 ------- 0 1.0 0.0 79 178
- 3.3764 1 0 ack 40 ------- 0 1.0 0.0 79 178
r 3.387467 1 0 ack 40 ------- 0 1.0 0.0 79 178
+ 3.387467 0 1 tcp 1540 ------- 0 0.0 1.0 99 179
- 3.407467 0 1 tcp 1540 ------- 0 0.0 1.0 81 143
r 3.417467 0 1 tcp 1540 ------- 0 0.0 1.0 80 141
+ 3.417467 1 0 ack 40 ------- 0 1.0 0.0 80 180
- 3.417467 1 0 ack 40 ------- 0 1.0 0.0 80 180
r 3.428533 1 0 ack 40 ------- 0 1.0 0.0 80 180
+ 3.428533 0 1 tcp 1540 ------- 0 0.0 1.0 100 181
- 3.448533 0 1 tcp 1540 ------- 0 0.0 1.0 82 145
r 3.458533 0 1 tcp 1540 ------- 0 0.0 1.0 81 143
+ 3.458533 1 0 ack 40 ------- 0 1.0 0.0 81 182
- 3.458533 1 0 ack 40 ------- 0 1.0 0.0 81 182
r 3.4696 1 0 ack 40 ------- 0 1.0 0.0 81 182
+ 3.4696 0 1 tcp 1540 ------- 0 0.0 1.0 101 183
- 3.4896 0 1 tcp 1540 ------- 0 0.0 1.0 83 147
r 3.4996 0 1 tcp 1540 ------- 0 0.0 1.0 82 145
+ 3.4996 1 0 ack 40 ------- 0 1.0 0.0 82 184
- 3.4996 1 0 ack 40 ------- 0 1.0 0.0 82 184
r 3.510667 1 0 ack 40 ------- 0 1.0 0.0 82 184
+ 3.510667 0 1 tcp 1540 ------- 0 0.0 1.0 102 185
- 3.530667 0 1 tcp 1540 ------- 0 0.0 1.0 84 149
r 3.540667 0 1 tcp 1540 ------- 0 0.0 1.0 83 147
+ 3.540667 1 0 ack 40 ------- 0 1.0 0.0 83 186
- 3.540667 1 0 ack 40 ------- 0 1.0 0.0 83 186
r 3.551733 1 0 ack 40 ------- 0 1.0 0.0 83 186
+ 3.551733 0 1 tcp 1540 ------- 0 0.0 1.0 103 187
- 3.571733 0 1 tcp 1540 ------- 0 0.0 1.0 85 151
r 3.581733 0 1 tcp 1540 ------- 0 0.0 1.0 84 149
+ 3.581733 1 0 ack 40 ------- 0 1.0 0.0 84 188
- 3.581733 1 0 ack 40 ------- 0 1.0 0.0 84 188
r 3.5928 1 0 ack 40 ------- 0 1.0 0.0 84 188
+ 3.5928 0 1 tcp 1540 ------- 0 0.0 1.0 104 189
- 3.6128 0 1 tcp 1540 ------- 0 0.0 1.0 86 153
r 3.6228 0 1 tcp 1540 ------- 0 0.0 1.0 85 151
+ 3.6228 1 0 ack 40 ------- 0 1.0 0.0 85 190
- 3.6228 1 0 ack 40 ------- 0 1.0 0.0 85 190
r 3.633867 1 0 ack 40 ------- 0 1.0 0.0 85 190
+ 3.633867 0 1 tcp 1540 ------- 0 0.0 1.0 105 191
- 3.653867 0 1 tcp 1540 ------- 0 0.0 1.0 87 155
r 3.663867 0 1 tcp 1540 ------- 0 0.0 1.0 86 153
+ 3.663867 1 0 ack 40 ------- 0 1.0 0.0 86 192
- 3.663867 1 0 ack 40 ------- 0 1.0 0.0 86 192
r 3.674933 1 0 ack 40 ------- 0 1.0 0.0 86 192
+ 3.674933 0 1 tcp 1540 ------- 0 0.0 1.0 106 193
- 3.694933 0 1 tcp 1540 ------- 0 0.0 1.0 88 157
r 3.704933 0 1 tcp 1540 ------- 0 0.0 1.0 87 155
+ 3.704933 1 0 ack 40 ------- 0 1.0 0.0 87 194
- 3.704933 1 0 ack 40 ------- 0 1.0 0.0 87 194
r 3.716 1 0 ack 40 ------- 0 1.0 0.0 87 194
+ 3.716 0 1 tcp 1540 ------- 0 0.0 1.0 107 195
- 3.736 0 1 tcp 1540 ------- 0 0.0 1.0 89 159
r 3.746 0 1 tcp 1540 ------- 0 0.0 1.0 88 157
+ 3.746 1 0 ack 40 ------- 0 1.0 0.0 88 196
- 3.746 1 0 ack 40 ------- 0 1.0 0.0 88 196
r 3.757067 1 0 ack 40 ------- 0 1.0 0.0 88 196
+ 3.757067 0 1 tcp 1540 ------- 0 0.0 1.0 108 197
- 3.777067 0 1 tcp 1540 ------- 0 0.0 1.0 90 161
r 3.787067 0 1 tcp 1540 ------- 0 0.0 1.0 89 159
+ 3.787067 1 0 ack 40 ------- 0 1.0 0.0 89 198
- 3.787067 1 0 ack 40 ------- 0 1.0 0.0 89 198
r 3.798133 1 0 ack 40 ------- 0 1.0 0.0 89 198
+ 3.798133 0 1 tcp 1540 ------- 0 0.0 1.0 109 199
- 3.818133 0 1 tcp 1540 ------- 0 0.0 1.0 91 163
r 3.828133 0 1 tcp 1540 ------- 0 0.0 1.0 90 161
+ 3.828133 1 0 ack 40 ------- 0 1.0 0.0 90 200
- 3.828133 1 0 ack 40 ------- 0 1.0 0.0 90 200
r 3.8392 1 0 ack 40 ------- 0 1.0 0.0 90 200
+ 3.8392 0 1 tcp 1540 ------- 0 0.0 1.0 110 201
- 3.8592 0 1 tcp 1540 ------- 0 0.0 1.0 92 165
r 3.8692 0 1 tcp 1540 ------- 0 0.0 1.0 91 163
+ 3.8692 1 0 ack 40 ------- 0 1.0 0.0 91 202
- 3.8692 1 0 ack 40 ------- 0 1.0 0.0 91 202
r 3.880267 1 0 ack 40 ------- 0 1.0 0.0 91 202
+ 3.880267 0 1 tcp 1540 ------- 0 0.0 1.0 111 203
- 3.900267 0 1 tcp 1540 ------- 0 0.0 1.0 93 167
r 3.910267 0 1 tcp 1540 ------- 0 0.0 1.0 92 165
+ 3.910267 1 0 ack 40 ------- 0 1.0 0.0 92 204
- 3.910267 1 0 ack 40 ------- 0 1.0 0.0 92 204
r 3.921333 1 0 ack 40 ------- 0 1.0 0.0 92 204
+ 3.921333 0 1 tcp 1540 ------- 0 0.0 1.0 112 205
- 3.941333 0 1 tcp 1540 ------- 0 0.0 1.0 94 169
r 3.951333 0 1 tcp 1540 ------- 0 0.0 1.0 93 167
+ 3.951333 1 0 ack 40 ------- 0 1.0 0.0 93 206
- 3.951333 1 0 ack 40 ------- 0 1.0 0.0 93 206
r 3.9624 1 0 ack 40 ------- 0 1.0 0.0 93 206
+ 3.9624 0 1 tcp 1540 ------- 0 0.0 1.0 113 207
- 3.9824 0 1 tcp 1540 ------- 0 0.0 1.0 95 171
r 3.9924 0 1 tcp 1540 ------- 0 0.0 1.0 94 169
+ 3.9924 1 0 ack 40 ------- 0 1.0 0.0 94 208
- 3.9924 1 0 ack 40 ------- 0 1.0 0.0 94 208
r 4.003467 1 0 ack 40 ------- 0 1.0 0.0 94 208
+ 4.003467 0 1 tcp 1540 ------- 0 0.0 1.0 114 209
- 4.023467 0 1 tcp 1540 ------- 0 0.0 1.0 96 173
r 4.033467 0 1 tcp 1540 ------- 0 0.0 1.0 95 171
+ 4.033467 1 0 ack 40 ------- 0 1.0 0.0 95 210
- 4.033467 1 0 ack 40 ------- 0 1.0 0.0 95 210
r 4.044533 1 0 ack 40 ------- 0 1.0 0.0 95 210
+ 4.044533 0 1 tcp 1540 ------- 0 0.0 1.0 115 211
- 4.064533 0 1 tcp 1540 ------- 0 0.0 1.0 97 175
r 4.074533 0 1 tcp 1540 ------- 0 0.0 1.0 96 173
+ 4.074533 1 0 ack 40 ------- 0 1.0 0.0 96 212
- 4.074533 1 0 ack 40 ------- 0 1.0 0.0 96 212
r 4.0856 1 0 ack 40 ------- 0 1.0 0.0 96 212
+ 4.0856 0 1 tcp 1540 ------- 0 0.0 1.0 116 213
- 4.1056 0 1 tcp 1540 ------- 0 0.0 1.0 98 177
r 4.1156 0 1 tcp 1540 ------- 0 0.0 1.0 97 175
+ 4.1156 1 0 ack 40 ------- 0 1.0 0.0 97 214
- 4.1156 1 0 ack 40 ------- 0 1.0 0.0 97 214
r 4.126667 1 0 ack 40 ------- 0 1.0 0.0 97 214
+ 4.126667 0 1 tcp 1540 ------- 0 0.0 1.0 117 215
- 4.146667 0 1 tcp 1540 ------- 0 0.0 1.0 99 179
r 4.156667 0 1 tcp 1540 ------- 0 0.0 1.0 98 177
+ 4.156667 1 0 ack 40 ------- 0 1.0 0.0 98 216
- 4.156667 1 0 ack 40 ------- 0 1.0 0.0 98 216
r 4.167733 1 0 ack 40 ------- 0 1.0 0.0 98 216
+ 4.167733 0 1 tcp 1540 ------- 0 0.0 1.0 118 217
- 4.187733 0 1 tcp 1540 ------- 0 0.0 1.0 100 181
r 4.197733 0 1 tcp 1540 ------- 0 0.0 1.0 99 179
+ 4.197733 1 0 ack 40 ------- 0 1.0 0.0 99 218
- 4.197733 1 0 ack 40 ------- 0 1.0 0.0 99 218
r 4.2088 1 0 ack 40 ------- 0 1.0 0.0 99 218
+ 4.2088 0 1 tcp 1540 ------- 0 0.0 1.0 119 219
- 4.2288 0 1 tcp 1540 ------- 0 0.0 1.0 101 183
r 4.2388 0 1 tcp 1540 ------- 0 0.0 1.0 100 181
+ 4.2388 1 0 ack 40 ------- 0 1.0 0.0 100 220
- 4.2388 1 0 ack 40 ------- 0 1.0 0.0 100 220
r 4.249867 1 0 ack 40 ------- 0 1.0 0.0 100 220
+ 4.249867 0 1 tcp 1540 ------- 0 0.0 1.0 120 221
- 4.269867 0 1 tcp 1540 ------- 0 0.0 1.0 102 185
r 4.279867 0 1 tcp 1540 ------- 0 0.0 1.0 101 183
+ 4.279867 1 0 ack 40 ------- 0 1.0 0.0 101 222
- 4.279867 1 0 ack 40 ------- 0 1.0 0.0 101 222
r 4.290933 1 0 ack 40 ------- 0 1.0 0.0 101 222
+ 4.290933 0 1 tcp 1540 ------- 0 0.0 1.0 121 223
- 4.310933 0 1 tcp 1540 ------- 0 0.0 1.0 103 187
r 4.320933 0 1 tcp 1540 ------- 0 0.0 1.0 102 185
+ 4.320933 1 0 ack 40 ------- 0 1.0 0.0 102 224
- 4.320933 1 0 ack 40 ------- 0 1.0 0.0 102 224
r 4.332 1 0 ack 40 ------- 0 1.0 0.0 102 224
+ 4.332 0 1 tcp 1540 ------- 0 0.0 1.0 122 225
- 4.352 0 1 tcp 1540 ------- 0 0.0 1.0 104 189
r 4.362 0 1 tcp 1540 ------- 0 0.0 1.0 103 187
+ 4.362 1 0 ack 40 ------- 0 1.0 0.0 103 226