V -t * -v 1.0a5 -a 0
A -t * -n 1 -p 0 -o 0x7fffffff -c 30 -a 1
A -t * -h 1 -m 1073741823 -s 0
n -t * -a 0 -s 0 -S UP -v circle -c black -i black
n -t * -a 1 -s 1 -S UP -v circle -c black -i black
n -t * -a 2 -s 2 -S UP -v circle -c black -i black
n -t * -a 3 -s 3 -S UP -v circle -c black -i black
l -t * -s 0 -d 2 -S UP -r 10000000 -D 0.002 -c black
l -t * -s 1 -d 2 -S UP -r 10000000 -D 0.002 -c black
l -t * -s 2 -d 3 -S UP -r 10000000 -D 0.01 -c black
+ -t 0.1 -s 1 -d 2 -p tcp -e 40 -c 0 -i 0 -a 0 -x {1.0 3.1 0 ------- null}
- -t 0.1 -s 1 -d 2 -p tcp -e 40 -c 0 -i 0 -a 0 -x {1.0 3.1 0 ------- null}
h -t 0.1 -s 1 -d 2 -p tcp -e 40 -c 0 -i 0 -a 0 -x {1.0 3.1 -1 ------- null}
r -t 0.102032 -s 1 -d 2 -p tcp -e 40 -c 0 -i 0 -a 0 -x {1.0 3.1 0 ------- null}
+ -t 0.102032 -s 2 -d 3 -p tcp -e 40 -c 0 -i 0 -a 0 -x {1.0 3.1 0 ------- null}
- -t 0.102032 -s 2 -d 3 -p tcp -e 40 -c 0 -i 0 -a 0 -x {1.0 3.1 0 ------- null}
h -t 0.102032 -s 2 -d 3 -p tcp -e 40 -c 0 -i 0 -a 0 -x {1.0 3.1 -1 ------- null}
r -t 0.112064 -s 2 -d 3 -p tcp -e 40 -c 0 -i 0 -a 0 -x {1.0 3.1 0 ------- null}
+ -t 0.112064 -s 3 -d 2 -p ack -e 40 -c 0 -i 1 -a 0 -x {3.1 1.0 0 ------- null}
- -t 0.112064 -s 3 -d 2 -p ack -e 40 -c 0 -i 1 -a 0 -x {3.1 1.0 0 ------- null}
h -t 0.112064 -s 3 -d 2 -p ack -e 40 -c 0 -i 1 -a 0 -x {3.1 1.0 -1 ------- null}
r -t 0.122096 -s 3 -d 2 -p ack -e 40 -c 0 -i 1 -a 0 -x {3.1 1.0 0 ------- null}
+ -t 0.122096 -s 2 -d 1 -p ack -e 40 -c 0 -i 1 -a 0 -x {3.1 1.0 0 ------- null}
- -t 0.122096 -s 2 -d 1 -p ack -e 40 -c 0 -i 1 -a 0 -x {3.1 1.0 0 ------- null}
h -t 0.122096 -s 2 -d 1 -p ack -e 40 -c 0 -i 1 -a 0 -x {3.1 1.0 -1 ------- null}
r -t 0.124128 -s 2 -d 1 -p ack -e 40 -c 0 -i 1 -a 0 -x {3.1 1.0 0 ------- null}
+ -t 0.124128 -s 1 -d 2 -p tcp -e 1040 -c 0 -i 2 -a 0 -x {1.0 3.1 1 ------- null}
- -t 0.124128 -s 1 -d 2 -p tcp -e 1040 -c 0 -i 2 -a 0 -x {1.0 3.1 1 ------- null}
h -t 0.124128 -s 1 -d 2 -p tcp -e 1040 -c 0 -i 2 -a 0 -x {1.0 3.1 -1 ------- null}
+ -t 0.124128 -s 1 -d 2 -p tcp -e 1040 -c 0 -i 3 -a 0 -x {1.0 3.1 2 ------- null}
- -t 0.12496 -s 1 -d 2 -p tcp -e 1040 -c 0 -i 3 -a 0 -x {1.0 3.1 2 ------- null}
h -t 0.12496 -s 1 -d 2 -p tcp -e 1040 -c 0 -i 3 -a 0 -x {1.0 3.1 -1 ------- null}
r -t 0.12696 -s 1 -d 2 -p tcp -e 1040 -c 0 -i 2 -a 0 -x {1.0 3.1 1 ------- null}
+ -t 0.12696 -s 2 -d 3 -p tcp -e 1040 -c 0 -i 2 -a 0 -x {1.0 3.1 1 ------- null}
- -t 0.12696 -s 2 -d 3 -p tcp -e 1040 -c 0 -i 2 -a 0 -x {1.0 3.1 1 ------- null}
h -t 0.12696 -s 2 -d 3 -p tcp -e 1040 -c 0 -i 2 -a 0 -x {1.0 3.1 -1 ------- null}
r -t 0.127792 -s 1 -d 2 -p tcp -e 1040 -c 0 -i 3 -a 0 -x {1.0 3.1 2 ------- null}
+ -t 0.127792 -s 2 -d 3 -p tcp -e 1040 -c 0 -i 3 -a 0 -x {1.0 3.1 2 ------- null}
- -t 0.127792 -s 2 -d 3 -p tcp -e 1040 -c 0 -i 3 -a 0 -x {1.0 3.1 2 ------- null}
h -t 0.127792 -s 2 -d 3 -p tcp -e 1040 -c 0 -i 3 -a 0 -x {1.0 3.1 -1 ------- null}
r -t 0.137792 -s 2 -d 3 -p tcp -e 1040 -c 0 -i 2 -a 0 -x {1.0 3.1 1 ------- null}
+ -t 0.137792 -s 3 -d 2 -p ack -e 40 -c 0 -i 4 -a 0 -x {3.1 1.0 1 ------- null}
- -t 0.137792 -s 3 -d 2 -p ack -e 40 -c 0 -i 4 -a 0 -x {3.1 1.0 1 ------- null}
h -t 0.137792 -s 3 -d 2 -p ack -e 40 -c 0 -i 4 -a 0 -x {3.1 1.0 -1 ------- null}
r -t 0.138624 -s 2 -d 3 -p tcp -e 1040 -c 0 -i 3 -a 0 -x {1.0 3.1 2 ------- null}
+ -t 0.138624 -s 3 -d 2 -p ack -e 40 -c 0 -i 5 -a 0 -x {3.1 1.0 2 ------- null}
- -t 0.138624 -s 3 -d 2 -p ack -e 40 -c 0 -i 5 -a 0 -x {3.1 1.0 2 ------- null}
h -t 0.138624 -s 3 -d 2 -p ack -e 40 -c 0 -i 5 -a 0 -x {3.1 1.0 -1 ------- null}
r -t 0.147824 -s 3 -d 2 -p ack -e 40 -c 0 -i 4 -a 0 -x {3.1 1.0 1 ------- null}
+ -t 0.147824 -s 2 -d 1 -p ack -e 40 -c 0 -i 4 -a 0 -x {3.1 1.0 1 ------- null}
- -t 0.147824 -s 2 -d 1 -p ack -e 40 -c 0 -i 4 -a 0 -x {3.1 1.0 1 ------- null}
h -t 0.147824 -s 2 -d 1 -p ack -e 40 -c 0 -i 4 -a 0 -x {3.1 1.0 -1 ------- null}
r -t 0.148656 -s 3 -d 2 -p ack -e 40 -c 0 -i 5 -a 0 -x {3.1 1.0 2 ------- null}
+ -t 0.148656 -s 2 -d 1 -p ack -e 40 -c 0 -i 5 -a 0 -x {3.1 1.0 2 ------- null}
- -t 0.148656 -s 2 -d 1 -p ack -e 40 -c 0 -i 5 -a 0 -x {3.1 1.0 2 ------- null}
h -t 0.148656 -s 2 -d 1 -p ack -e 40 -c 0 -i 5 -a 0 -x {3.1 1.0 -1 ------- null}
r -t 0.149856 -s 2 -d 1 -p ack -e 40 -c 0 -i 4 -a 0 -x {3.1 1.0 1 ------- null}
+ -t 0.149856 -s 1 -d 2 -p tcp -e 1040 -c 0 -i 6 -a 0 -x {1.0 3.1 3 ------- null}
- -t 0.149856 -s 1 -d 2 -p tcp -e 1040 -c 0 -i 6 -a 0 -x {1.0 3.1 3 ------- null}
h -t 0.149856 -s 1 -d 2 -p tcp -e 1040 -c 0 -i 6 -a 0 -x {1.0 3.1 -1 ------- null}
+ -t 0.149856 -s 1 -d 2 -p tcp -e 1040 -c 0 -i 7 -a 0 -x {1.0 3.1 4 ------- null}
r -t 0.150688 -s 2 -d 1 -p ack -e 40 -c 0 -i 5 -a 0 -x {3.1 1.0 2 ------- null}
+ -t 0.150688 -s 1 -d 2 -p tcp -e 1040 -c 0 -i 8 -a 0 -x {1.0 3.1 5 ------- null}
+ -t 0.150688 -s 1 -d 2 -p tcp -e 1040 -c 0 -i 9 -a 0 -x {1.0 3.1 6 ------- null}
- -t 0.150688 -s 1 -d 2 -p tcp -e 1040 -c 0 -i 7 -a 0 -x {1.0 3.1 4 ------- null}
h -t 0.150688 -s 1 -d 2 -p tcp -e 1040 -c 0 -i 7 -a 0 -x {1.0 3.1 -1 ------- null}
- -t 0.15152 -s 1 -d 2 -p tcp -e 1040 -c 0 -i 8 -a 0 -x {1.0 3.1 5 ------- null}
h -t 0.15152 -s 1 -d 2 -p tcp -e 1040 -c 0 -i 8 -a 0 -x {1.0 3.1 -1 ------- null}
- -t 0.152352 -s 1 -d 2 -p tcp -e 1040 -c 0 -i 9 -a 0 -x {1.0 3.1 6 ------- null}
h -t 0.152352 -s 1 -d 2 -p tcp -e 1040 -c 0 -i 9 -a 0 -x {1.0 3.1 -1 ------- null}
r -t 0.152688 -s 1 -d 2 -p tcp -e 1040 -c 0 -i 6 -a 0 -x {1.0 3.1 3 ------- null}
+ -t 0.152688 -s 2 -d 3 -p tcp -e 1040 -c 0 -i 6 -a 0 -x {1.0 3.1 3 ------- null}
- -t 0.152688 -s 2 -d 3 -p tcp -e 1040 -c 0 -i 6 -a 0 -x {1.0 3.1 3 ------- null}
h -t 0.152688 -s 2 -d 3 -p tcp -e 1040 -c 0 -i 6 -a 0 -x {1.0 3.1 -1 ------- null}
r -t 0.15352 -s 1 -d 2 -p tcp -e 1040 -c 0 -i 7 -a 0 -x {1.0 3.1 4 ------- null}
+ -t 0.15352 -s 2 -d 3 -p tcp -e 1040 -c 0 -i 7 -a 0 -x {1.0 3.1 4 ------- null}
- -t 0.15352 -s 2 -d 3 -p tcp -e 1040 -c 0 -i 7 -a 0 -x {1.0 3.1 4 ------- null}
h -t 0.15352 -s 2 -d 3 -p tcp -e 1040 -c 0 -i 7 -a 0 -x {1.0 3.1 -1 ------- null}
r -t 0.154352 -s 1 -d 2 -p tcp -e 1040 -c 0 -i 8 -a 0 -x {1.0 3.1 5 ------- null}
+ -t 0.154352 -s 2 -d 3 -p tcp -e 1040 -c 0 -i 8 -a 0 -x {1.0 3.1 5 ------- null}
- -t 0.154352 -s 2 -d 3 -p tcp -e 1040 -c 0 -i 8 -a 0 -x {1.0 3.1 5 ------- null}
h -t 0.154352 -s 2 -d 3 -p tcp -e 1040 -c 0 -i 8 -a 0 -x {1.0 3.1 -1 ------- null}
r -t 0.155184 -s 1 -d 2 -p tcp -e 1040 -c 0 -i 9 -a 0 -x {1.0 3.1 6 ------- null}
+ -t 0.155184 -s 2 -d 3 -p tcp -e 1040 -c 0 -i 9 -a 0 -x {1.0 3.1 6 ------- null}
- -t 0.155184 -s 2 -d 3 -p tcp -e 1040 -c 0 -i 9 -a 0 -x {1.0 3.1 6 ------- null}
h -t 0.155184 -s 2 -d 3 -p tcp -e 1040 -c 0 -i 9 -a 0 -x {1.0 3.1 -1 ------- null}
r -t 0.16352 -s 2 -d 3 -p tcp -e 1040 -c 0 -i 6 -a 0 -x {1.0 3.1 3 ------- null}
+ -t 0.16352 -s 3 -d 2 -p ack -e 40 -c 0 -i 10 -a 0 -x {3.1 1.0 3 ------- null}
- -t 0.16352 -s 3 -d 2 -p ack -e 40 -c 0 -i 10 -a 0 -x {3.1 1.0 3 ------- null}
h -t 0.16352 -s 3 -d 2 -p ack -e 40 -c 0 -i 10 -a 0 -x {3.1 1.0 -1 ------- null}
r -t 0.164352 -s 2 -d 3 -p tcp -e 1040 -c 0 -i 7 -a 0 -x {1.0 3.1 4 ------- null}
+ -t 0.164352 -s 3 -d 2 -p ack -e 40 -c 0 -i 11 -a 0 -x {3.1 1.0 4 ------- null}
- -t 0.164352 -s 3 -d 2 -p ack -e 40 -c 0 -i 11 -a 0 -x {3.1 1.0 4 ------- null}
h -t 0.164352 -s 3 -d 2 -p ack -e 40 -c 0 -i 11 -a 0 -x {3.1 1.0 -1 ------- null}
r -t 0.165184 -s 2 -d 3 -p tcp -e 1040 -c 0 -i 8 -a 0 -x {1.0 3.1 5 ------- null}
+ -t 0.165184 -s 3 -d 2 -p ack -e 40 -c 0 -i 12 -a 0 -x {3.1 1.0 5 ------- null}
- -t 0.165184 -s 3 -d 2 -p ack -e 40 -c 0 -i 12 -a 0 -x {3.1 1.0 5 ------- null}
h -t 0.165184 -s 3 -d 2 -p ack -e 40 -c 0 -i 12 -a 0 -x {3.1 1.0 -1 ------- null}
r -t 0.166016 -s 2 -d 3 -p tcp -e 1040 -c 0 -i 9 -a 0 -x {1.0 3.1 6 ------- null}
+ -t 0.166016 -s 3 -d 2 -p ack -e 40 -c 0 -i 13 -a 0 -x {3.1 1.0 6 ------- null}
- -t 0.166016 -s 3 -d 2 -p ack -e 40 -c 0 -i 13 -a 0 -x {3.1 1.0 6 ------- null}
h -t 0.166016 -s 3 -d 2 -p ack -e 40 -c 0 -i 13 -a 0 -x {3.1 1.0 -1 ------- null}
r -t 0.173552 -s 3 -d 2 -p ack -e 40 -c 0 -i 10 -a 0 -x {3.1 1.0 3 ------- null}
+ -t 0.173552 -s 2 -d 1 -p ack -e 40 -c 0 -i 10 -a 0 -x {3.1 1.0 3 ------- null}
- -t 0.173552 -s 2 -d 1 -p ack -e 40 -c 0 -i 10 -a 0 -x {3.1 1.0 3 ------- null}
h -t 0.173552 -s 2 -d 1 -p ack -e 40 -c 0 -i 10 -a 0 -x {3.1 1.0 -1 ------- null}
r -t 0.174384 -s 3 -d 2 -p ack -e 40 -c 0 -i 11 -a 0 -x {3.1 1.0 4 ------- null}
+ -t 0.174384 -s 2 -d 1 -p ack -e 40 -c 0 -i 11 -a 0 -x {3.1 1.0 4 ------- null}
- -t 0.174384 -s 2 -d 1 -p ack -e 40 -c 0 -i 11 -a 0 -x {3.1 1.0 4 ------- null}
h -t 0.174384 -s 2 -d 1 -p ack -e 40 -c 0 -i 11 -a 0 -x {3.1 1.0 -1 ------- null}
r -t 0.175216 -s 3 -d 2 -p ack -e 40 -c 0 -i 12 -a 0 -x {3.1 1.0 5 ------- null}
+ -t 0.175216 -s 2 -d 1 -p ack -e 40 -c 0 -i 12 -a 0 -x {3.1 1.0 5 ------- null}
- -t 0.175216 -s 2 -d 1 -p ack -e 40 -c 0 -i 12 -a 0 -x {3.1 1.0 5 ------- null}
h -t 0.175216 -s 2 -d 1 -p ack -e 40 -c 0 -i 12 -a 0 -x {3.1 1.0 -1 ------- null}
r -t 0.175584 -s 2 -d 1 -p ack -e 40 -c 0 -i 10 -a 0 -x {3.1 1.0 3 ------- null}
+ -t 0.175584 -s 1 -d 2 -p tcp -e 1040 -c 0 -i 14 -a 0 -x {1.0 3.1 7 ------- null}
- -t 0.175584 -s 1 -d 2 -p tcp -e 1040 -c 0 -i 14 -a 0 -x {1.0 3.1 7 ------- null}
h -t 0.175584 -s 1 -d 2 -p tcp -e 1040 -c 0 -i 14 -a 0 -x {1.0 3.1 -1 ------- null}
+ -t 0.175584 -s 1 -d 2 -p tcp -e 1040 -c 0 -i 15 -a 0 -x {1.0 3.1 8 ------- null}
r -t 0.176048 -s 3 -d 2 -p ack -e 40 -c 0 -i 13 -a 0 -x {3.1 1.0 6 ------- null}
+ -t 0.176048 -s 2 -d 1 -p ack -e 40 -c 0 -i 13 -a 0 -x {3.1 1.0 6 ------- null}
- -t 0.176048 -s 2 -d 1 -p ack -e 40 -c 0 -i 13 -a 0 -x {3.1 1.0 6 ------- null}
h -t 0.176048 -s 2 -d 1 -p ack -e 40 -c 0 -i 13 -a 0 -x {3.1 1.0 -1 ------- null}
r -t 0.176416 -s 2 -d 1 -p ack -e 40 -c 0 -i 11 -a 0 -x {3.1 1.0 4 ------- null}
+ -t 0.176416 -s 1 -d 2 -p tcp -e 1040 -c 0 -i 16 -a 0 -x {1.0 3.1 9 ------- null}
+ -t 0.176416 -s 1 -d 2 -p tcp -e 1040 -c 0 -i 17 -a 0 -x {1.0 3.1 10 ------- null}
- -t 0.176416 -s 1 -d 2 -p tcp -e 1040 -c 0 -i 15 -a 0 -x {1.0 3.1 8 ------- null}
h -t 0.176416 -s 1 -d 2 -p tcp -e 1040 -c 0 -i 15 -a 0 -x {1.0 3.1 -1 ------- null}
r -t 0.177248 -s 2 -d 1 -p ack -e 40 -c 0 -i 12 -a 0 -x {3.1 1.0 5 ------- null}
+ -t 0.177248 -s 1 -d 2 -p tcp -e 1040 -c 0 -i 18 -a 0 -x {1.0 3.1 11 ------- null}
+ -t 0.177248 -s 1 -d 2 -p tcp -e 1040 -c 0 -i 19 -a 0 -x {1.0 3.1 12 ------- null}
- -t 0.177248 -s 1 -d 2 -p tcp -e 1040 -c 0 -i 16 -a 0 -x {1.0 3.1 9 ------- null}
h -t 0.177248 -s 1 -d 2 -p tcp -e 1040 -c 0 -i 16 -a 0 -x {1.0 3.1 -1 ------- null}
r -t 0.17808 -s 2 -d 1 -p ack -e 40 -c 0 -i 13 -a 0 -x {3.1 1.0 6 ------- null}
+ -t 0.17808 -s 1 -d 2 -p tcp -e 1040 -c 0 -i 20 -a 0 -x {1.0 3.1 13 ------- null}
+ -t 0.17808 -s 1 -d 2 -p tcp -e 1040 -c 0 -i 21 -a 0 -x {1.0 3.1 14 ------- null}
- -t 0.17808 -s 1 -d 2 -p tcp -e 1040 -c 0 -i 17 -a 0 -x {1.0 3.1 10 ------- null}
h -t 0.17808 -s 1 -d 2 -p tcp -e 1040 -c 0 -i 17 -a 0 -x {1.0 3.1 -1 ------- null}
r -t 0.178416 -s 1 -d 2 -p tcp -e 1040 -c 0 -i 14 -a 0 -x {1.0 3.1 7 ------- null}
+ -t 0.178416 -s 2 -d 3 -p tcp -e 1040 -c 0 -i 14 -a 0 -x {1.0 3.1 7 ------- null}
- -t 0.178416 -s 2 -d 3 -p tcp -e 1040 -c 0 -i 14 -a 0 -x {1.0 3.1 7 ------- null}
h -t 0.178416 -s 2 -d 3 -p tcp -e 1040 -c 0 -i 14 -a 0 -x {1.0 3.1 -1 ------- null}
- -t 0.178912 -s 1 -d 2 -p tcp -e 1040 -c 0 -i 18 -a 0 -x {1.0 3.1 11 ------- null}
h -t 0.178912 -s 1 -d 2 -p tcp -e 1040 -c 0 -i 18 -a 0 -x {1.0 3.1 -1 ------- null}
r -t 0.179248 -s 1 -d 2 -p tcp -e 1040 -c 0 -i 15 -a 0 -x {1.0 3.1 8 ------- null}
+ -t 0.179248 -s 2 -d 3 -p tcp -e 1040 -c 0 -i 15 -a 0 -x {1.0 3.1 8 ------- null}
- -t 0.179248 -s 2 -d 3 -p tcp -e 1040 -c 0 -i 15 -a 0 -x {1.0 3.1 8 ------- null}
h -t 0.179248 -s 2 -d 3 -p tcp -e 1040 -c 0 -i 15 -a 0 -x {1.0 3.1 -1 ------- null}
- -t 0.179744 -s 1 -d 2 -p tcp -e 1040 -c 0 -i 19 -a 0 -x {1.0 3.1 12 ------- null}
h -t 0.179744 -s 1 -d 2 -p tcp -e 1040 -c 0 -i 19 -a 0 -x {1.0 3.1 -1 ------- null}
r -t 0.18008 -s 1 -d 2 -p tcp -e 1040 -c 0 -i 16 -a 0 -x {1.0 3.1 9 ------- null}
+ -t 0.18008 -s 2 -d 3 -p tcp -e 1040 -c 0 -i 16 -a 0 -x {1.0 3.1 9 ------- null}
- -t 0.18008 -s 2 -d 3 -p tcp -e 1040 -c 0 -i 16 -a 0 -x {1.0 3.1 9 ------- null}
h -t 0.18008 -s 2 -d 3 -p tcp -e 1040 -c 0 -i 16 -a 0 -x {1.0 3.1 -1 ------- null}
- -t 0.180576 -s 1 -d 2 -p tcp -e 1040 -c 0 -i 20 -a 0 -x {1.0 3.1 13 ------- null}
h -t 0.180576 -s 1 -d 2 -p tcp -e 1040 -c 0 -i 20 -a 0 -x {1.0 3.1 -1 ------- null}
r -t 0.180912 -s 1 -d 2 -p tcp -e 1040 -c 0 -i 17 -a 0 -x {1.0 3.1 10 ------- null}
+ -t 0.180912 -s 2 -d 3 -p tcp -e 1040 -c 0 -i 17 -a 0 -x {1.0 3.1 10 ------- null}
- -t 0.180912 -s 2 -d 3 -p tcp -e 1040 -c 0 -i 17 -a 0 -x {1.0 3.1 10 ------- null}
h -t 0.180912 -s 2 -d 3 -p tcp -e 1040 -c 0 -i 17 -a 0 -x {1.0 3.1 -1 ------- null}
- -t 0.181408 -s 1 -d 2 -p tcp -e 1040 -c 0 -i 21 -a 0 -x {1.0 3.1 14 ------- null}
h -t 0.181408 -s 1 -d 2 -p tcp -e 1040 -c 0 -i 21 -a 0 -x {1.0 3.1 -1 ------- null}
r -t 0.181744 -s 1 -d 2 -p tcp -e 1040 -c 0 -i 18 -a 0 -x {1.0 3.1 11 ------- null}
+ -t 0.181744 -s 2 -d 3 -p tcp -e 1040 -c 0 -i 18 -a 0 -x {1.0 3.1 11 ------- null}
- -t 0.181744 -s 2 -d 3 -p tcp -e 1040 -c 0 -i 18 -a 0 -x {1.0 3.1 11 ------- null}
h -t 0.181744 -s 2 -d 3 -p tcp -e 1040 -c 0 -i 18 -a 0 -x {1.0 3.1 -1 ------- null}
r -t 0.182576 -s 1 -d 2 -p tcp -e 1040 -c 0 -i 19 -a 0 -x {1.0 3.1 12 ------- null}
+ -t 0.182576 -s 2 -d 3 -p tcp -e 1040 -c 0 -i 19 -a 0 -x {1.0 3.1 12 ------- null}
- -t 0.182576 -s 2 -d 3 -p tcp -e 1040 -c 0 -i 19 -a 0 -x {1.0 3.1 12 ------- null}
h -t 0.182576 -s 2 -d 3 -p tcp -e 1040 -c 0 -i 19 -a 0 -x {1.0 3.1 -1 ------- null}
r -t 0.183408 -s 1 -d 2 -p tcp -e 1040 -c 0 -i 20 -a 0 -x {1.0 3.1 13 ------- null}
+ -t 0.183408 -s 2 -d 3 -p tcp -e 1040 -c 0 -i 20 -a 0 -x {1.0 3.1 13 ------- null}
- -t 0.183408 -s 2 -d 3 -p tcp -e 1040 -c 0 -i 20 -a 0 -x {1.0 3.1 13 ------- null}
h -t 0.183408 -s 2 -d 3 -p tcp -e 1040 -c 0 -i 20 -a 0 -x {1.0 3.1 -1 ------- null}
r -t 0.18424 -s 1 -d 2 -p tcp -e 1040 -c 0 -i 21 -a 0 -x {1.0 3.1 14 ------- null}
+ -t 0.18424 -s 2 -d 3 -p tcp -e 1040 -c 0 -i 21 -a 0 -x {1.0 3.1 14 ------- null}
- -t 0.18424 -s 2 -d 3 -p tcp -e 1040 -c 0 -i 21 -a 0 -x {1.0 3.1 14 ------- null}
h -t 0.18424 -s 2 -d 3 -p tcp -e 1040 -c 0 -i 21 -a 0 -x {1.0 3.1 -1 ------- null}
r -t 0.189248 -s 2 -d 3 -p tcp -e 1040 -c 0 -i 14 -a 0 -x {1.0 3.1 7 ------- null}
+ -t 0.189248 -s 3 -d 2 -p ack -e 40 -c 0 -i 22 -a 0 -x {3.1 1.0 7 ------- null}
- -t 0.189248 -s 3 -d 2 -p ack -e 40 -c 0 -i 22 -a 0 -x {3.1 1.0 7 ------- null}
h -t 0.189248 -s 3 -d 2 -p ack -e 40 -c 0 -i 22 -a 0 -x {3.1 1.0 -1 ------- null}
r -t 0.19008 -s 2 -d 3 -p tcp -e 1040 -c 0 -i 15 -a 0 -x {1.0 3.1 8 ------- null}
+ -t 0.19008 -s 3 -d 2 -p ack -e 40 -c 0 -i 23 -a 0 -x {3.1 1.0 8 ------- null}
- -t 0.19008 -s 3 -d 2 -p ack -e 40 -c 0 -i 23 -a 0 -x {3.1 1.0 8 ------- null}
h -t 0.19008 -s 3 -d 2 -p ack -e 40 -c 0 -i 23 -a 0 -x {3.1 1.0 -1 ------- null}
r -t 0.190912 -s 2 -d 3 -p tcp -e 1040 -c 0 -i 16 -a 0 -x {1.0 3.1 9 ------- null}
+ -t 0.190912 -s 3 -d 2 -p ack -e 40 -c 0 -i 24 -a 0 -x {3.1 1.0 9 ------- null}
- -t 0.190912 -s 3 -d 2 -p ack -e 40 -c 0 -i 24 -a 0 -x {3.1 1.0 9 ------- null}
h -t 0.190912 -s 3 -d 2 -p ack -e 40 -c 0 -i 24 -a 0 -x {3.1 1.0 -1 ------- null}
r -t 0.191744 -s 2 -d 3 -p tcp -e 1040 -c 0 -i 17 -a 0 -x {1.0 3.1 10 ------- null}
+ -t 0.191744 -s 3 -d 2 -p ack -e 40 -c 0 -i 25 -a 0 -x {3.1 1.0 10 ------- null}
- -t 0.191744 -s 3 -d 2 -p ack -e 40 -c 0 -i 25 -a 0 -x {3.1 1.0 10 ------- null}
h -t 0.191744 -s 3 -d 2 -p ack -e 40 -c 0 -i 25 -a 0 -x {3.1 1.0 -1 ------- null}
r -t 0.192576 -s 2 -d 3 -p tcp -e 1040 -c 0 -i 18 -a 0 -x {1.0 3.1 11 ------- null}
+ -t 0.192576 -s 3 -d 2 -p ack -e 40 -c 0 -i 26 -a 0 -x {3.1 1.0 11 ------- null}
- -t 0.192576 -s 3 -d 2 -p ack -e 40 -c 0 -i 26 -a 0 -x {3.1 1.0 11 ------- null}
h -t 0.192576 -s 3 -d 2 -p ack -e 40 -c 0 -i 26 -a 0 -x {3.1 1.0 -1 ------- null}
r -t 0.193408 -s 2 -d 3 -p tcp -e 1040 -c 0 -i 19 -a 0 -x {1.0 3.1 12 ------- null}
+ -t 0.193408 -s 3 -d 2 -p ack -e 40 -c 0 -i 27 -a 0 -x {3.1 1.0 12 ------- null}
- -t 0.193408 -s 3 -d 2 -p ack -e 40 -c 0 -i 27 -a 0 -x {3.1 1.0 12 ------- null}
h -t 0.193408 -s 3 -d 2 -p ack -e 40 -c 0 -i 27 -a 0 -x {3.1 1.0 -1 ------- null}
r -t 0.19424 -s 2 -d 3 -p tcp -e 1040 -c 0 -i 20 -a 0 -x {1.0 3.1 13 ------- null}
+ -t 0.19424 -s 3 -d 2 -p ack -e 40 -c 0 -i 28 -a 0 -x {3.1 1.0 13 ------- null}
- -t 0.19424 -s 3 -d 2 -p ack -e 40 -c 0 -i 28 -a 0 -x {3.1 1.0 13 ------- null}
h -t 0.19424 -s 3 -d 2 -p ack -e 40 -c 0 -i 28 -a 0 -x {3.1 1.0 -1 ------- null}
r -t 0.195072 -s 2 -d 3 -p tcp -e 1040 -c 0 -i 21 -a 0 -x {1.0 3.1 14 ------- null}
+ -t 0.195072 -s 3 -d 2 -p ack -e 40 -c 0 -i 29 -a 0 -x {3.1 1.0 14 ------- null}
- -t 0.195072 -s 3 -d 2 -p ack -e 40 -c 0 -i 29 -a 0 -x {3.1 1.0 14 ------- null}
h -t 0.195072 -s 3 -d 2 -p ack -e 40 -c 0 -i 29 -a 0 -x {3.1 1.0 -1 ------- null}
r -t 0.19928 -s 3 -d 2 -p ack -e 40 -c 0 -i 22 -a 0 -x {3.1 1.0 7 ------- null}
+ -t 0.19928 -s 2 -d 1 -p ack -e 40 -c 0 -i 22 -a 0 -x {3.1 1.0 7 ------- null}
- -t 0.19928 -s 2 -d 1 -p ack -e 40 -c 0 -i 22 -a 0 -x {3.1 1.0 7 ------- null}
h -t 0.19928 -s 2 -d 1 -p ack -e 40 -c 0 -i 22 -a 0 -x {3.1 1.0 -1 ------- null}
r -t 0.200112 -s 3 -d 2 -p ack -e 40 -c 0 -i 23 -a 0 -x {3.1 1.0 8 ------- null}
+ -t 0.200112 -s 2 -d 1 -p ack -e 40 -c 0 -i 23 -a 0 -x {3.1 1.0 8 ------- null}
- -t 0.200112 -s 2 -d 1 -p ack -e 40 -c 0 -i 23 -a 0 -x {3.1 1.0 8 ------- null}
h -t 0.200112 -s 2 -d 1 -p ack -e 40 -c 0 -i 23 -a 0 -x {3.1 1.0 -1 ------- null}
r -t 0.200944 -s 3 -d 2 -p ack -e 40 -c 0 -i 24 -a 0 -x {3.1 1.0 9 ------- null}
+ -t 0.200944 -s 2 -d 1 -p ack -e 40 -c 0 -i 24 -a 0 -x {3.1 1.0 9 ------- null}
- -t 0.200944 -s 2 -d 1 -p ack -e 40 -c 0 -i 24 -a 0 -x {3.1 1.0 9 ------- null}
h -t 0.200944 -s 2 -d 1 -p ack -e 40 -c 0 -i 24 -a 0 -x {3.1 1.0 -1 ------- null}
r -t 0.201312 -s 2 -d 1 -p ack -e 40 -c 0 -i 22 -a 0 -x {3.1 1.0 7 ------- null}
+ -t 0.201312 -s 1 -d 2 -p tcp -e 1040 -c 0 -i 30 -a 0 -x {1.0 3.1 15 ------- null}
- -t 0.201312 -s 1 -d 2 -p tcp -e 1040 -c 0 -i 30 -a 0 -x {1.0 3.1 15 ------- null}
h -t 0.201312 -s 1 -d 2 -p tcp -e 1040 -c 0 -i 30 -a 0 -x {1.0 3.1 -1 ------- null}
+ -t 0.201312 -s 1 -d 2 -p tcp -e 1040 -c 0 -i 31 -a 0 -x {1.0 3.1 16 ------- null}
r -t 0.201776 -s 3 -d 2 -p ack -e 40 -c 0 -i 25 -a 0 -x {3.1 1.0 10 ------- null}
+ -t 0.201776 -s 2 -d 1 -p ack -e 40 -c 0 -i 25 -a 0 -x {3.1 1.0 10 ------- null}
- -t 0.201776 -s 2 -d 1 -p ack -e 40 -c 0 -i 25 -a 0 -x {3.1 1.0 10 ------- null}
h -t 0.201776 -s 2 -d 1 -p ack -e 40 -c 0 -i 25 -a 0 -x {3.1 1.0 -1 ------- null}
r -t 0.202144 -s 2 -d 1 -p ack -e 40 -c 0 -i 23 -a 0 -x {3.1 1.0 8 ------- null}
+ -t 0.202144 -s 1 -d 2 -p tcp -e 1040 -c 0 -i 32 -a 0 -x {1.0 3.1 17 ------- null}
+ -t 0.202144 -s 1 -d 2 -p tcp -e 1040 -c 0 -i 33 -a 0 -x {1.0 3.1 18 ------- null}
- -t 0.202144 -s 1 -d 2 -p tcp -e 1040 -c 0 -i 31 -a 0 -x {1.0 3.1 16 ------- null}
h -t 0.202144 -s 1 -d 2 -p tcp -e 1040 -c 0 -i 31 -a 0 -x {1.0 3.1 -1 ------- null}
r -t 0.202608 -s 3 -d 2 -p ack -e 40 -c 0 -i 26 -a 0 -x {3.1 1.0 11 ------- null}
+ -t 0.202608 -s 2 -d 1 -p ack -e 40 -c 0 -i 26 -a 0 -x {3.1 1.0 11 ------- null}
- -t 0.202608 -s 2 -d 1 -p ack -e 40 -c 0 -i 26 -a 0 -x {3.1 1.0 11 ------- null}
h -t 0.202608 -s 2 -d 1 -p ack -e 40 -c 0 -i 26 -a 0 -x {3.1 1.0 -1 ------- null}
r -t 0.202976 -s 2 -d 1 -p ack -e 40 -c 0 -i 24 -a 0 -x {3.1 1.0 9 ------- null}
+ -t 0.202976 -s 1 -d 2 -p tcp -e 1040 -c 0 -i 34 -a 0 -x {1.0 3.1 19 ------- null}
+ -t 0.202976 -s 1 -d 2 -p tcp -e 1040 -c 0 -i 35 -a 0 -x {1.0 3.1 20 ------- null}
- -t 0.202976 -s 1 -d 2 -p tcp -e 1040 -c 0 -i 32 -a 0 -x {1.0 3.1 17 ------- null}
h -t 0.202976 -s 1 -d 2 -p tcp -e 1040 -c 0 -i 32 -a 0 -x {1.0 3.1 -1 ------- null}
r -t 0.20344 -s 3 -d 2 -p ack -e 40 -c 0 -i 27 -a 0 -x {3.1 1.0 12 ------- null}
+ -t 0.20344 -s 2 -d 1 -p ack -e 40 -c 0 -i 27 -a 0 -x {3.1 1.0 12 ------- null}
- -t 0.20344 -s 2 -d 1 -p ack -e 40 -c 0 -i 27 -a 0 -x {3.1 1.0 12 ------- null}
h -t 0.20344 -s 2 -d 1 -p ack -e 40 -c 0 -i 27 -a 0 -x {3.1 1.0 -1 ------- null}
r -t 0.203808 -s 2 -d 1 -p ack -e 40 -c 0 -i 25 -a 0 -x {3.1 1.0 10 ------- null}
+ -t 0.203808 -s 1 -d 2 -p tcp -e 1040 -c 0 -i 36 -a 0 -x {1.0 3.1 21 ------- null}
+ -t 0.203808 -s 1 -d 2 -p tcp -e 1040 -c 0 -i 37 -a 0 -x {1.0 3.1 22 ------- null}
- -t 0.203808 -s 1 -d 2 -p tcp -e 1040 -c 0 -i 33 -a 0 -x {1.0 3.1 18 ------- null}
h -t 0.203808 -s 1 -d 2 -p tcp -e 1040 -c 0 -i 33 -a 0 -x {1.0 3.1 -1 ------- null}
r -t 0.204144 -s 1 -d 2 -p tcp -e 1040 -c 0 -i 30 -a 0 -x {1.0 3.1 15 ------- null}
+ -t 0.204144 -s 2 -d 3 -p tcp -e 1040 -c 0 -i 30 -a 0 -x {1.0 3.1 15 ------- null}
- -t 0.204144 -s 2 -d 3 -p tcp -e 1040 -c 0 -i 30 -a 0 -x {1.0 3.1 15 ------- null}
h -t 0.204144 -s 2 -d 3 -p tcp -e 1040 -c 0 -i 30 -a 0 -x {1.0 3.1 -1 ------- null}
r -t 0.204272 -s 3 -d 2 -p ack -e 40 -c 0 -i 28 -a 0 -x {3.1 1.0 13 ------- null}
+ -t 0.204272 -s 2 -d 1 -p ack -e 40 -c 0 -i 28 -a 0 -x {3.1 1.0 13 ------- null}
- -t 0.204272 -s 2 -d 1 -p ack -e 40 -c 0 -i 28 -a 0 -x {3.1 1.0 13 ------- null}
h -t 0.204272 -s 2 -d 1 -p ack -e 40 -c 0 -i 28 -a 0 -x {3.1 1.0 -1 ------- null}
r -t 0.20464 -s 2 -d 1 -p ack -e 40 -c 0 -i 26 -a 0 -x {3.1 1.0 11 ------- null}
+ -t 0.20464 -s 1 -d 2 -p tcp -e 1040 -c 0 -i 38 -a 0 -x {1.0 3.1 23 ------- null}
+ -t 0.20464 -s 1 -d 2 -p tcp -e 1040 -c 0 -i 39 -a 0 -x {1.0 3.1 24 ------- null}
- -t 0.20464 -s 1 -d 2 -p tcp -e 1040 -c 0 -i 34 -a 0 -x {1.0 3.1 19 ------- null}
h -t 0.20464 -s 1 -d 2 -p tcp -e 1040 -c 0 -i 34 -a 0 -x {1.0 3.1 -1 ------- null}
r -t 0.204976 -s 1 -d 2 -p tcp -e 1040 -c 0 -i 31 -a 0 -x {1.0 3.1 16 ------- null}
+ -t 0.204976 -s 2 -d 3 -p tcp -e 1040 -c 0 -i 31 -a 0 -x {1.0 3.1 16 ------- null}
- -t 0.204976 -s 2 -d 3 -p tcp -e 1040 -c 0 -i 31 -a 0 -x {1.0 3.1 16 ------- null}
h -t 0.204976 -s 2 -d 3 -p tcp -e 1040 -c 0 -i 31 -a 0 -x {1.0 3.1 -1 ------- null}
r -t 0.205104 -s 3 -d 2 -p ack -e 40 -c 0 -i 29 -a 0 -x {3.1 1.0 14 ------- null}
+ -t 0.205104 -s 2 -d 1 -p ack -e 40 -c 0 -i 29 -a 0 -x {3.1 1.0 14 ------- null}
- -t 0.205104 -s 2 -d 1 -p ack -e 40 -c 0 -i 29 -a 0 -x {3.1 1.0 14 ------- null}
h -t 0.205104 -s 2 -d 1 -p ack -e 40 -c 0 -i 29 -a 0 -x {3.1 1.0 -1 ------- null}
r -t 0.205472 -s 2 -d 1 -p ack -e 40 -c 0 -i 27 -a 0 -x {3.1 1.0 12 ------- null}
+ -t 0.205472 -s 1 -d 2 -p tcp -e 1040 -c 0 -i 40 -a 0 -x {1.0 3.1 25 ------- null}
+ -t 0.205472 -s 1 -d 2 -p tcp -e 1040 -c 0 -i 41 -a 0 -x {1.0 3.1 26 ------- null}
- -t 0.205472 -s 1 -d 2 -p tcp -e 1040 -c 0 -i 35 -a 0 -x {1.0 3.1 20 ------- null}
h -t 0.205472 -s 1 -d 2 -p tcp -e 1040 -c 0 -i 35 -a 0 -x {1.0 3.1 -1 ------- null}
r -t 0.205808 -s 1 -d 2 -p tcp -e 1040 -c 0 -i 32 -a 0 -x {1.0 3.1 17 ------- null}
+ -t 0.205808 -s 2 -d 3 -p tcp -e 1040 -c 0 -i 32 -a 0 -x {1.0 3.1 17 ------- null}
- -t 0.205808 -s 2 -d 3 -p tcp -e 1040 -c 0 -i 32 -a 0 -x {1.0 3.1 17 ------- null}
h -t 0.205808 -s 2 -d 3 -p tcp -e 1040 -c 0 -i 32 -a 0 -x {1.0 3.1 -1 ------- null}
r -t 0.206304 -s 2 -d 1 -p ack -e 40 -c 0 -i 28 -a 0 -x {3.1 1.0 13 ------- null}
+ -t 0.206304 -s 1 -d 2 -p tcp -e 1040 -c 0 -i 42 -a 0 -x {1.0 3.1 27 ------- null}
+ -t 0.206304 -s 1 -d 2 -p tcp -e 1040 -c 0 -i 43 -a 0 -x {1.0 3.1 28 ------- null}
- -t 0.206304 -s 1 -d 2 -p tcp -e 1040 -c 0 -i 36 -a 0 -x {1.0 3.1 21 ------- null}
h -t 0.206304 -s 1 -d 2 -p tcp -e 1040 -c 0 -i 36 -a 0 -x {1.0 3.1 -1 ------- null}
r -t 0.20664 -s 1 -d 2 -p tcp -e 1040 -c 0 -i 33 -a 0 -x {1.0 3.1 18 ------- null}
+ -t 0.20664 -s 2 -d 3 -p tcp -e 1040 -c 0 -i 33 -a 0 -x {1.0 3.1 18 ------- null}
- -t 0.20664 -s 2 -d 3 -p tcp -e 1040 -c 0 -i 33 -a 0 -x {1.0 3.1 18 ------- null}
h -t 0.20664 -s 2 -d 3 -p tcp -e 1040 -c 0 -i 33 -a 0 -x {1.0 3.1 -1 ------- null}
r -t 0.207136 -s 2 -d 1 -p ack -e 40 -c 0 -i 29 -a 0 -x {3.1 1.0 14 ------- null}
+ -t 0.207136 -s 1 -d 2 -p tcp -e 1040 -c 0 -i 44 -a 0 -x {1.0 3.1 29 ------- null}
+ -t 0.207136 -s 1 -d 2 -p tcp -e 1040 -c 0 -i 45 -a 0 -x {1.0 3.1 30 ------- null}
- -t 0.207136 -s 1 -d 2 -p tcp -e 1040 -c 0 -i 37 -a 0 -x {1.0 3.1 22 ------- null}
h -t 0.207136 -s 1 -d 2 -p tcp -e 1040 -c 0 -i 37 -a 0 -x {1.0 3.1 -1 ------- null}
r -t 0.207472 -s 1 -d 2 -p tcp -e 1040 -c 0 -i 34 -a 0 -x {1.0 3.1 19 ------- null}
+ -t 0.207472 -s 2 -d 3 -p tcp -e 1040 -c 0 -i 34 -a 0 -x {1.0 3.1 19 ------- null}
- -t 0.207472 -s 2 -d 3 -p tcp -e 1040 -c 0 -i 34 -a 0 -x {1.0 3.1 19 ------- null}
h -t 0.207472 -s 2 -d 3 -p tcp -e 1040 -c 0 -i 34 -a 0 -x {1.0 3.1 -1 ------- null}
- -t 0.207968 -s 1 -d 2 -p tcp -e 1040 -c 0 -i 38 -a 0 -x {1.0 3.1 23 ------- null}
h -t 0.207968 -s 1 -d 2 -p tcp -e 1040 -c 0 -i 38 -a 0 -x {1.0 3.1 -1 ------- null}
r -t 0.208304 -s 1 -d 2 -p tcp -e 1040 -c 0 -i 35 -a 0 -x {1.0 3.1 20 ------- null}
+ -t 0.208304 -s 2 -d 3 -p tcp -e 1040 -c 0 -i 35 -a 0 -x {1.0 3.1 20 ------- null}
- -t 0.208304 -s 2 -d 3 -p tcp -e 1040 -c 0 -i 35 -a 0 -x {1.0 3.1 20 ------- null}
h -t 0.208304 -s 2 -d 3 -p tcp -e 1040 -c 0 -i 35 -a 0 -x {1.0 3.1 -1 ------- null}
- -t 0.2088 -s 1 -d 2 -p tcp -e 1040 -c 0 -i 39 -a 0 -x {1.0 3.1 24 ------- null}
h -t 0.2088 -s 1 -d 2 -p tcp -e 1040 -c 0 -i 39 -a 0 -x {1.0 3.1 -1 ------- null}
r -t 0.209136 -s 1 -d 2 -p tcp -e 1040 -c 0 -i 36 -a 0 -x {1.0 3.1 21 ------- null}
+ -t 0.209136 -s 2 -d 3 -p tcp -e 1040 -c 0 -i 36 -a 0 -x {1.0 3.1 21 ------- null}
- -t 0.209136 -s 2 -d 3 -p tcp -e 1040 -c 0 -i 36 -a 0 -x {1.0 3.1 21 ------- null}
h -t 0.209136 -s 2 -d 3 -p tcp -e 1040 -c 0 -i 36 -a 0 -x {1.0 3.1 -1 ------- null}
- -t 0.209632 -s 1 -d 2 -p tcp -e 1040 -c 0 -i 40 -a 0 -x {1.0 3.1 25 ------- null}
h -t 0.209632 -s 1 -d 2 -p tcp -e 1040 -c 0 -i 40 -a 0 -x {1.0 3.1 -1 ------- null}
r -t 0.209968 -s 1 -d 2 -p tcp -e 1040 -c 0 -i 37 -a 0 -x {1.0 3.1 22 ------- null}
+ -t 0.209968 -s 2 -d 3 -p tcp -e 1040 -c 0 -i 37 -a 0 -x {1.0 3.1 22 ------- null}
- -t 0.209968 -s 2 -d 3 -p tcp -e 1040 -c 0 -i 37 -a 0 -x {1.0 3.1 22 ------- null}
h -t 0.209968 -s 2 -d 3 -p tcp -e 1040 -c 0 -i 37 -a 0 -x {1.0 3.1 -1 ------- null}
- -t 0.210464 -s 1 -d 2 -p tcp -e 1040 -c 0 -i 41 -a 0 -x {1.0 3.1 26 ------- null}
h -t 0.210464 -s 1 -d 2 -p tcp -e 1040 -c 0 -i 41 -a 0 -x {1.0 3.1 -1 ------- null}
r -t 0.2108 -s 1 -d 2 -p tcp -e 1040 -c 0 -i 38 -a 0 -x {1.0 3.1 23 ------- null}
+ -t 0.2108 -s 2 -d 3 -p tcp -e 1040 -c 0 -i 38 -a 0 -x {1.0 3.1 23 ------- null}
- -t 0.2108 -s 2 -d 3 -p tcp -e 1040 -c 0 -i 38 -a 0 -x {1.0 3.1 23 ------- null}
h -t 0.2108 -s 2 -d 3 -p tcp -e 1040 -c 0 -i 38 -a 0 -x {1.0 3.1 -1 ------- null}
- -t 0.211296 -s 1 -d 2 -p tcp -e 1040 -c 0 -i 42 -a 0 -x {1.0 3.1 27 ------- null}
h -t 0.211296 -s 1 -d 2 -p tcp -e 1040 -c 0 -i 42 -a 0 -x {1.0 3.1 -1 ------- null}
r -t 0.211632 -s 1 -d 2 -p tcp -e 1040 -c 0 -i 39 -a 0 -x {1.0 3.1 24 ------- null}
+ -t 0.211632 -s 2 -d 3 -p tcp -e 1040 -c 0 -i 39 -a 0 -x {1.0 3.1 24 ------- null}
- -t 0.211632 -s 2 -d 3 -p tcp -e 1040 -c 0 -i 39 -a 0 -x {1.0 3.1 24 ------- null}
h -t 0.211632 -s 2 -d 3 -p tcp -e 1040 -c 0 -i 39 -a 0 -x {1.0 3.1 -1 ------- null}
- -t 0.212128 -s 1 -d 2 -p tcp -e 1040 -c 0 -i 43 -a 0 -x {1.0 3.1 28 ------- null}
h -t 0.212128 -s 1 -d 2 -p tcp -e 1040 -c 0 -i 43 -a 0 -x {1.0 3.1 -1 ------- null}
r -t 0.212464 -s 1 -d 2 -p tcp -e 1040 -c 0 -i 40 -a 0 -x {1.0 3.1 25 ------- null}
+ -t 0.212464 -s 2 -d 3 -p tcp -e 1040 -c 0 -i 40 -a 0 -x {1.0 3.1 25 ------- null}
- -t 0.212464 -s 2 -d 3 -p tcp -e 1040 -c 0 -i 40 -a 0 -x {1.0 3.1 25 ------- null}
h -t 0.212464 -s 2 -d 3 -p tcp -e 1040 -c 0 -i 40 -a 0 -x {1.0 3.1 -1 ------- null}
- -t 0.21296 -s 1 -d 2 -p tcp -e 1040 -c 0 -i 44 -a 0 -x {1.0 3.1 29 ------- null}
h -t 0.21296 -s 1 -d 2 -p tcp -e 1040 -c 0 -i 44 -a 0 -x {1.0 3.1 -1 ------- null}
r -t 0.213296 -s 1 -d 2 -p tcp -e 1040 -c 0 -i 41 -a 0 -x {1.0 3.1 26 ------- null}
+ -t 0.213296 -s 2 -d 3 -p tcp -e 1040 -c 0 -i 41 -a 0 -x {1.0 3.1 26 ------- null}
- -t 0.213296 -s 2 -d 3 -p tcp -e 1040 -c 0 -i 41 -a 0 -x {1.0 3.1 26 ------- null}
h -t 0.213296 -s 2 -d 3 -p tcp -e 1040 -c 0 -i 41 -a 0 -x {1.0 3.1 -1 ------- null}
- -t 0.213792 -s 1 -d 2 -p tcp -e 1040 -c 0 -i 45 -a 0 -x {1.0 3.1 30 ------- null}
h -t 0.213792 -s 1 -d 2 -p tcp -e 1040 -c 0 -i 45 -a 0 -x {1.0 3.1 -1 ------- null}
r -t 0.214128 -s 1 -d 2 -p tcp -e 1040 -c 0 -i 42 -a 0 -x {1.0 3.1 27 ------- null}
+ -t 0.214128 -s 2 -d 3 -p tcp -e 1040 -c 0 -i 42 -a 0 -x {1.0 3.1 27 ------- null}
- -t 0.214128 -s 2 -d 3 -p tcp -e 1040 -c 0 -i 42 -a 0 -x {1.0 3.1 27 ------- null}
h -t 0.214128 -s 2 -d 3 -p tcp -e 1040 -c 0 -i 42 -a 0 -x {1.0 3.1 -1 ------- null}
r -t 0.21496 -s 1 -d 2 -p tcp -e 1040 -c 0 -i 43 -a 0 -x {1.0 3.1 28 ------- null}
+ -t 0.21496 -s 2 -d 3 -p tcp -e 1040 -c 0 -i 43 -a 0 -x {1.0 3.1 28 ------- null}
- -t 0.21496 -s 2 -d 3 -p tcp -e 1040 -c 0 -i 43 -a 0 -x {1.0 3.1 28 ------- null}
h -t 0.21496 -s 2 -d 3 -p tcp -e 1040 -c 0 -i 43 -a 0 -x {1.0 3.1 -1 ------- null}
r -t 0.214976 -s 2 -d 3 -p tcp -e 1040 -c 0 -i 30 -a 0 -x {1.0 3.1 15 ------- null}
+ -t 0.214976 -s 3 -d 2 -p ack -e 40 -c 0 -i 46 -a 0 -x {3.1 1.0 15 ------- null}
- -t 0.214976 -s 3 -d 2 -p ack -e 40 -c 0 -i 46 -a 0 -x {3.1 1.0 15 ------- null}
h -t 0.214976 -s 3 -d 2 -p ack -e 40 -c 0 -i 46 -a 0 -x {3.1 1.0 -1 ------- null}
r -t 0.215792 -s 1 -d 2 -p tcp -e 1040 -c 0 -i 44 -a 0 -x {1.0 3.1 29 ------- null}
+ -t 0.215792 -s 2 -d 3 -p tcp -e 1040 -c 0 -i 44 -a 0 -x {1.0 3.1 29 ------- null}
- -t 0.215792 -s 2 -d 3 -p tcp -e 1040 -c 0 -i 44 -a 0 -x {1.0 3.1 29 ------- null}
h -t 0.215792 -s 2 -d 3 -p tcp -e 1040 -c 0 -i 44 -a 0 -x {1.0 3.1 -1 ------- null}
r -t 0.215808 -s 2 -d 3 -p tcp -e 1040 -c 0 -i 31 -a 0 -x {1.0 3.1 16 ------- null}
+ -t 0.215808 -s 3 -d 2 -p ack -e 40 -c 0 -i 47 -a 0 -x {3.1 1.0 16 ------- null}
- -t 0.215808 -s 3 -d 2 -p ack -e 40 -c 0 -i 47 -a 0 -x {3.1 1.0 16 ------- null}
h -t 0.215808 -s 3 -d 2 -p ack -e 40 -c 0 -i 47 -a 0 -x {3.1 1.0 -1 ------- null}
r -t 0.216624 -s 1 -d 2 -p tcp -e 1040 -c 0 -i 45 -a 0 -x {1.0 3.1 30 ------- null}
+ -t 0.216624 -s 2 -d 3 -p tcp -e 1040 -c 0 -i 45 -a 0 -x {1.0 3.1 30 ------- null}