+ 0.1 1 2 tcp 40 ------- 0 1.0 3.1 0 0
- 0.1 1 2 tcp 40 ------- 0 1.0 3.1 0 0
r 0.102032 1 2 tcp 40 ------- 0 1.0 3.1 0 0
+ 0.102032 2 3 tcp 40 ------- 0 1.0 3.1 0 0
- 0.102032 2 3 tcp 40 ------- 0 1.0 3.1 0 0
r 0.112064 2 3 tcp 40 ------- 0 1.0 3.1 0 0
+ 0.112064 3 2 ack 40 ------- 0 3.1 1.0 0 1
- 0.112064 3 2 ack 40 ------- 0 3.1 1.0 0 1
r 0.122096 3 2 ack 40 ------- 0 3.1 1.0 0 1
+ 0.122096 2 1 ack 40 ------- 0 3.1 1.0 0 1
- 0.122096 2 1 ack 40 ------- 0 3.1 1.0 0 1
r 0.124128 2 1 ack 40 ------- 0 3.1 1.0 0 1
+ 0.124128 1 2 tcp 1040 ------- 0 1.0 3.1 1 2
- 0.124128 1 2 tcp 1040 ------- 0 1.0 3.1 1 2
+ 0.124128 1 2 tcp 1040 ------- 0 1.0 3.1 2 3
- 0.12496 1 2 tcp 1040 ------- 0 1.0 3.1 2 3
r 0.12696 1 2 tcp 1040 ------- 0 1.0 3.1 1 2
+ 0.12696 2 3 tcp 1040 ------- 0 1.0 3.1 1 2
- 0.12696 2 3 tcp 1040 ------- 0 1.0 3.1 1 2
r 0.127792 1 2 tcp 1040 ------- 0 1.0 3.1 2 3
+ 0.127792 2 3 tcp 1040 ------- 0 1.0 3.1 2 3
- 0.127792 2 3 tcp 1040 ------- 0 1.0 3.1 2 3
r 0.137792 2 3 tcp 1040 ------- 0 1.0 3.1 1 2
+ 0.137792 3 2 ack 40 ------- 0 3.1 1.0 1 4
- 0.137792 3 2 ack 40 ------- 0 3.1 1.0 1 4
r 0.138624 2 3 tcp 1040 ------- 0 1.0 3.1 2 3
+ 0.138624 3 2 ack 40 ------- 0 3.1 1.0 2 5
- 0.138624 3 2 ack 40 ------- 0 3.1 1.0 2 5
r 0.147824 3 2 ack 40 ------- 0 3.1 1.0 1 4
+ 0.147824 2 1 ack 40 ------- 0 3.1 1.0 1 4
- 0.147824 2 1 ack 40 ------- 0 3.1 1.0 1 4
r 0.148656 3 2 ack 40 ------- 0 3.1 1.0 2 5
+ 0.148656 2 1 ack 40 ------- 0 3.1 1.0 2 5
- 0.148656 2 1 ack 40 ------- 0 3.1 1.0 2 5
r 0.149856 2 1 ack 40 ------- 0 3.1 1.0 1 4
+ 0.149856 1 2 tcp 1040 ------- 0 1.0 3.1 3 6
- 0.149856 1 2 tcp 1040 ------- 0 1.0 3.1 3 6
+ 0.149856 1 2 tcp 1040 ------- 0 1.0 3.1 4 7
r 0.150688 2 1 ack 40 ------- 0 3.1 1.0 2 5
+ 0.150688 1 2 tcp 1040 ------- 0 1.0 3.1 5 8
+ 0.150688 1 2 tcp 1040 ------- 0 1.0 3.1 6 9
- 0.150688 1 2 tcp 1040 ------- 0 1.0 3.1 4 7
- 0.15152 1 2 tcp 1040 ------- 0 1.0 3.1 5 8
- 0.152352 1 2 tcp 1040 ------- 0 1.0 3.1 6 9
r 0.152688 1 2 tcp 1040 ------- 0 1.0 3.1 3 6
+ 0.152688 2 3 tcp 1040 ------- 0 1.0 3.1 3 6
- 0.152688 2 3 tcp 1040 ------- 0 1.0 3.1 3 6
r 0.15352 1 2 tcp 1040 ------- 0 1.0 3.1 4 7
+ 0.15352 2 3 tcp 1040 ------- 0 1.0 3.1 4 7
- 0.15352 2 3 tcp 1040 ------- 0 1.0 3.1 4 7
r 0.154352 1 2 tcp 1040 ------- 0 1.0 3.1 5 8
+ 0.154352 2 3 tcp 1040 ------- 0 1.0 3.1 5 8
- 0.154352 2 3 tcp 1040 ------- 0 1.0 3.1 5 8
r 0.155184 1 2 tcp 1040 ------- 0 1.0 3.1 6 9
+ 0.155184 2 3 tcp 1040 ------- 0 1.0 3.1 6 9
- 0.155184 2 3 tcp 1040 ------- 0 1.0 3.1 6 9
r 0.16352 2 3 tcp 1040 ------- 0 1.0 3.1 3 6
+ 0.16352 3 2 ack 40 ------- 0 3.1 1.0 3 10
- 0.16352 3 2 ack 40 ------- 0 3.1 1.0 3 10
r 0.164352 2 3 tcp 1040 ------- 0 1.0 3.1 4 7
+ 0.164352 3 2 ack 40 ------- 0 3.1 1.0 4 11
- 0.164352 3 2 ack 40 ------- 0 3.1 1.0 4 11
r 0.165184 2 3 tcp 1040 ------- 0 1.0 3.1 5 8
+ 0.165184 3 2 ack 40 ------- 0 3.1 1.0 5 12
- 0.165184 3 2 ack 40 ------- 0 3.1 1.0 5 12
r 0.166016 2 3 tcp 1040 ------- 0 1.0 3.1 6 9
+ 0.166016 3 2 ack 40 ------- 0 3.1 1.0 6 13
- 0.166016 3 2 ack 40 ------- 0 3.1 1.0 6 13
r 0.173552 3 2 ack 40 ------- 0 3.1 1.0 3 10
+ 0.173552 2 1 ack 40 ------- 0 3.1 1.0 3 10
- 0.173552 2 1 ack 40 ------- 0 3.1 1.0 3 10
r 0.174384 3 2 ack 40 ------- 0 3.1 1.0 4 11
+ 0.174384 2 1 ack 40 ------- 0 3.1 1.0 4 11
- 0.174384 2 1 ack 40 ------- 0 3.1 1.0 4 11
r 0.175216 3 2 ack 40 ------- 0 3.1 1.0 5 12
+ 0.175216 2 1 ack 40 ------- 0 3.1 1.0 5 12
- 0.175216 2 1 ack 40 ------- 0 3.1 1.0 5 12
r 0.175584 2 1 ack 40 ------- 0 3.1 1.0 3 10
+ 0.175584 1 2 tcp 1040 ------- 0 1.0 3.1 7 14
- 0.175584 1 2 tcp 1040 ------- 0 1.0 3.1 7 14
+ 0.175584 1 2 tcp 1040 ------- 0 1.0 3.1 8 15
r 0.176048 3 2 ack 40 ------- 0 3.1 1.0 6 13
+ 0.176048 2 1 ack 40 ------- 0 3.1 1.0 6 13
- 0.176048 2 1 ack 40 ------- 0 3.1 1.0 6 13
r 0.176416 2 1 ack 40 ------- 0 3.1 1.0 4 11
+ 0.176416 1 2 tcp 1040 ------- 0 1.0 3.1 9 16
+ 0.176416 1 2 tcp 1040 ------- 0 1.0 3.1 10 17
- 0.176416 1 2 tcp 1040 ------- 0 1.0 3.1 8 15
r 0.177248 2 1 ack 40 ------- 0 3.1 1.0 5 12
+ 0.177248 1 2 tcp 1040 ------- 0 1.0 3.1 11 18
+ 0.177248 1 2 tcp 1040 ------- 0 1.0 3.1 12 19
- 0.177248 1 2 tcp 1040 ------- 0 1.0 3.1 9 16
r 0.17808 2 1 ack 40 ------- 0 3.1 1.0 6 13
+ 0.17808 1 2 tcp 1040 ------- 0 1.0 3.1 13 20
+ 0.17808 1 2 tcp 1040 ------- 0 1.0 3.1 14 21
- 0.17808 1 2 tcp 1040 ------- 0 1.0 3.1 10 17
r 0.178416 1 2 tcp 1040 ------- 0 1.0 3.1 7 14
+ 0.178416 2 3 tcp 1040 ------- 0 1.0 3.1 7 14
- 0.178416 2 3 tcp 1040 ------- 0 1.0 3.1 7 14
- 0.178912 1 2 tcp 1040 ------- 0 1.0 3.1 11 18
r 0.179248 1 2 tcp 1040 ------- 0 1.0 3.1 8 15
+ 0.179248 2 3 tcp 1040 ------- 0 1.0 3.1 8 15
- 0.179248 2 3 tcp 1040 ------- 0 1.0 3.1 8 15
- 0.179744 1 2 tcp 1040 ------- 0 1.0 3.1 12 19
r 0.18008 1 2 tcp 1040 ------- 0 1.0 3.1 9 16
+ 0.18008 2 3 tcp 1040 ------- 0 1.0 3.1 9 16
- 0.18008 2 3 tcp 1040 ------- 0 1.0 3.1 9 16
- 0.180576 1 2 tcp 1040 ------- 0 1.0 3.1 13 20
r 0.180912 1 2 tcp 1040 ------- 0 1.0 3.1 10 17
+ 0.180912 2 3 tcp 1040 ------- 0 1.0 3.1 10 17
- 0.180912 2 3 tcp 1040 ------- 0 1.0 3.1 10 17
- 0.181408 1 2 tcp 1040 ------- 0 1.0 3.1 14 21
r 0.181744 1 2 tcp 1040 ------- 0 1.0 3.1 11 18
+ 0.181744 2 3 tcp 1040 ------- 0 1.0 3.1 11 18
- 0.181744 2 3 tcp 1040 ------- 0 1.0 3.1 11 18
r 0.182576 1 2 tcp 1040 ------- 0 1.0 3.1 12 19
+ 0.182576 2 3 tcp 1040 ------- 0 1.0 3.1 12 19
- 0.182576 2 3 tcp 1040 ------- 0 1.0 3.1 12 19
r 0.183408 1 2 tcp 1040 ------- 0 1.0 3.1 13 20
+ 0.183408 2 3 tcp 1040 ------- 0 1.0 3.1 13 20
- 0.183408 2 3 tcp 1040 ------- 0 1.0 3.1 13 20
r 0.18424 1 2 tcp 1040 ------- 0 1.0 3.1 14 21
+ 0.18424 2 3 tcp 1040 ------- 0 1.0 3.1 14 21
- 0.18424 2 3 tcp 1040 ------- 0 1.0 3.1 14 21
r 0.189248 2 3 tcp 1040 ------- 0 1.0 3.1 7 14
+ 0.189248 3 2 ack 40 ------- 0 3.1 1.0 7 22
- 0.189248 3 2 ack 40 ------- 0 3.1 1.0 7 22
r 0.19008 2 3 tcp 1040 ------- 0 1.0 3.1 8 15
+ 0.19008 3 2 ack 40 ------- 0 3.1 1.0 8 23
- 0.19008 3 2 ack 40 ------- 0 3.1 1.0 8 23
r 0.190912 2 3 tcp 1040 ------- 0 1.0 3.1 9 16
+ 0.190912 3 2 ack 40 ------- 0 3.1 1.0 9 24
- 0.190912 3 2 ack 40 ------- 0 3.1 1.0 9 24
r 0.191744 2 3 tcp 1040 ------- 0 1.0 3.1 10 17
+ 0.191744 3 2 ack 40 ------- 0 3.1 1.0 10 25
- 0.191744 3 2 ack 40 ------- 0 3.1 1.0 10 25
r 0.192576 2 3 tcp 1040 ------- 0 1.0 3.1 11 18
+ 0.192576 3 2 ack 40 ------- 0 3.1 1.0 11 26
- 0.192576 3 2 ack 40 ------- 0 3.1 1.0 11 26
r 0.193408 2 3 tcp 1040 ------- 0 1.0 3.1 12 19
+ 0.193408 3 2 ack 40 ------- 0 3.1 1.0 12 27
- 0.193408 3 2 ack 40 ------- 0 3.1 1.0 12 27
r 0.19424 2 3 tcp 1040 ------- 0 1.0 3.1 13 20
+ 0.19424 3 2 ack 40 ------- 0 3.1 1.0 13 28
- 0.19424 3 2 ack 40 ------- 0 3.1 1.0 13 28
r 0.195072 2 3 tcp 1040 ------- 0 1.0 3.1 14 21
+ 0.195072 3 2 ack 40 ------- 0 3.1 1.0 14 29
- 0.195072 3 2 ack 40 ------- 0 3.1 1.0 14 29
r 0.19928 3 2 ack 40 ------- 0 3.1 1.0 7 22
+ 0.19928 2 1 ack 40 ------- 0 3.1 1.0 7 22
- 0.19928 2 1 ack 40 ------- 0 3.1 1.0 7 22
r 0.200112 3 2 ack 40 ------- 0 3.1 1.0 8 23
+ 0.200112 2 1 ack 40 ------- 0 3.1 1.0 8 23
- 0.200112 2 1 ack 40 ------- 0 3.1 1.0 8 23
r 0.200944 3 2 ack 40 ------- 0 3.1 1.0 9 24
+ 0.200944 2 1 ack 40 ------- 0 3.1 1.0 9 24
- 0.200944 2 1 ack 40 ------- 0 3.1 1.0 9 24
r 0.201312 2 1 ack 40 ------- 0 3.1 1.0 7 22
+ 0.201312 1 2 tcp 1040 ------- 0 1.0 3.1 15 30
- 0.201312 1 2 tcp 1040 ------- 0 1.0 3.1 15 30
+ 0.201312 1 2 tcp 1040 ------- 0 1.0 3.1 16 31
r 0.201776 3 2 ack 40 ------- 0 3.1 1.0 10 25
+ 0.201776 2 1 ack 40 ------- 0 3.1 1.0 10 25
- 0.201776 2 1 ack 40 ------- 0 3.1 1.0 10 25
r 0.202144 2 1 ack 40 ------- 0 3.1 1.0 8 23
+ 0.202144 1 2 tcp 1040 ------- 0 1.0 3.1 17 32
+ 0.202144 1 2 tcp 1040 ------- 0 1.0 3.1 18 33
- 0.202144 1 2 tcp 1040 ------- 0 1.0 3.1 16 31
r 0.202608 3 2 ack 40 ------- 0 3.1 1.0 11 26
+ 0.202608 2 1 ack 40 ------- 0 3.1 1.0 11 26
- 0.202608 2 1 ack 40 ------- 0 3.1 1.0 11 26
r 0.202976 2 1 ack 40 ------- 0 3.1 1.0 9 24
+ 0.202976 1 2 tcp 1040 ------- 0 1.0 3.1 19 34
+ 0.202976 1 2 tcp 1040 ------- 0 1.0 3.1 20 35
- 0.202976 1 2 tcp 1040 ------- 0 1.0 3.1 17 32
r 0.20344 3 2 ack 40 ------- 0 3.1 1.0 12 27
+ 0.20344 2 1 ack 40 ------- 0 3.1 1.0 12 27
- 0.20344 2 1 ack 40 ------- 0 3.1 1.0 12 27
r 0.203808 2 1 ack 40 ------- 0 3.1 1.0 10 25
+ 0.203808 1 2 tcp 1040 ------- 0 1.0 3.1 21 36
+ 0.203808 1 2 tcp 1040 ------- 0 1.0 3.1 22 37
- 0.203808 1 2 tcp 1040 ------- 0 1.0 3.1 18 33
r 0.204144 1 2 tcp 1040 ------- 0 1.0 3.1 15 30
+ 0.204144 2 3 tcp 1040 ------- 0 1.0 3.1 15 30
- 0.204144 2 3 tcp 1040 ------- 0 1.0 3.1 15 30
r 0.204272 3 2 ack 40 ------- 0 3.1 1.0 13 28
+ 0.204272 2 1 ack 40 ------- 0 3.1 1.0 13 28
- 0.204272 2 1 ack 40 ------- 0 3.1 1.0 13 28
r 0.20464 2 1 ack 40 ------- 0 3.1 1.0 11 26
+ 0.20464 1 2 tcp 1040 ------- 0 1.0 3.1 23 38
+ 0.20464 1 2 tcp 1040 ------- 0 1.0 3.1 24 39
- 0.20464 1 2 tcp 1040 ------- 0 1.0 3.1 19 34
r 0.204976 1 2 tcp 1040 ------- 0 1.0 3.1 16 31
+ 0.204976 2 3 tcp 1040 ------- 0 1.0 3.1 16 31
- 0.204976 2 3 tcp 1040 ------- 0 1.0 3.1 16 31
r 0.205104 3 2 ack 40 ------- 0 3.1 1.0 14 29
+ 0.205104 2 1 ack 40 ------- 0 3.1 1.0 14 29
- 0.205104 2 1 ack 40 ------- 0 3.1 1.0 14 29
r 0.205472 2 1 ack 40 ------- 0 3.1 1.0 12 27
+ 0.205472 1 2 tcp 1040 ------- 0 1.0 3.1 25 40
+ 0.205472 1 2 tcp 1040 ------- 0 1.0 3.1 26 41
- 0.205472 1 2 tcp 1040 ------- 0 1.0 3.1 20 35
r 0.205808 1 2 tcp 1040 ------- 0 1.0 3.1 17 32
+ 0.205808 2 3 tcp 1040 ------- 0 1.0 3.1 17 32
- 0.205808 2 3 tcp 1040 ------- 0 1.0 3.1 17 32
r 0.206304 2 1 ack 40 ------- 0 3.1 1.0 13 28
+ 0.206304 1 2 tcp 1040 ------- 0 1.0 3.1 27 42
+ 0.206304 1 2 tcp 1040 ------- 0 1.0 3.1 28 43
- 0.206304 1 2 tcp 1040 ------- 0 1.0 3.1 21 36
r 0.20664 1 2 tcp 1040 ------- 0 1.0 3.1 18 33
+ 0.20664 2 3 tcp 1040 ------- 0 1.0 3.1 18 33
- 0.20664 2 3 tcp 1040 ------- 0 1.0 3.1 18 33
r 0.207136 2 1 ack 40 ------- 0 3.1 1.0 14 29
+ 0.207136 1 2 tcp 1040 ------- 0 1.0 3.1 29 44
+ 0.207136 1 2 tcp 1040 ------- 0 1.0 3.1 30 45
- 0.207136 1 2 tcp 1040 ------- 0 1.0 3.1 22 37
r 0.207472 1 2 tcp 1040 ------- 0 1.0 3.1 19 34
+ 0.207472 2 3 tcp 1040 ------- 0 1.0 3.1 19 34
- 0.207472 2 3 tcp 1040 ------- 0 1.0 3.1 19 34
- 0.207968 1 2 tcp 1040 ------- 0 1.0 3.1 23 38
r 0.208304 1 2 tcp 1040 ------- 0 1.0 3.1 20 35
+ 0.208304 2 3 tcp 1040 ------- 0 1.0 3.1 20 35
- 0.208304 2 3 tcp 1040 ------- 0 1.0 3.1 20 35
- 0.2088 1 2 tcp 1040 ------- 0 1.0 3.1 24 39
r 0.209136 1 2 tcp 1040 ------- 0 1.0 3.1 21 36
+ 0.209136 2 3 tcp 1040 ------- 0 1.0 3.1 21 36
- 0.209136 2 3 tcp 1040 ------- 0 1.0 3.1 21 36
- 0.209632 1 2 tcp 1040 ------- 0 1.0 3.1 25 40
r 0.209968 1 2 tcp 1040 ------- 0 1.0 3.1 22 37
+ 0.209968 2 3 tcp 1040 ------- 0 1.0 3.1 22 37
- 0.209968 2 3 tcp 1040 ------- 0 1.0 3.1 22 37
- 0.210464 1 2 tcp 1040 ------- 0 1.0 3.1 26 41
r 0.2108 1 2 tcp 1040 ------- 0 1.0 3.1 23 38
+ 0.2108 2 3 tcp 1040 ------- 0 1.0 3.1 23 38
- 0.2108 2 3 tcp 1040 ------- 0 1.0 3.1 23 38
- 0.211296 1 2 tcp 1040 ------- 0 1.0 3.1 27 42
r 0.211632 1 2 tcp 1040 ------- 0 1.0 3.1 24 39
+ 0.211632 2 3 tcp 1040 ------- 0 1.0 3.1 24 39
- 0.211632 2 3 tcp 1040 ------- 0 1.0 3.1 24 39
- 0.212128 1 2 tcp 1040 ------- 0 1.0 3.1 28 43
r 0.212464 1 2 tcp 1040 ------- 0 1.0 3.1 25 40
+ 0.212464 2 3 tcp 1040 ------- 0 1.0 3.1 25 40
- 0.212464 2 3 tcp 1040 ------- 0 1.0 3.1 25 40
- 0.21296 1 2 tcp 1040 ------- 0 1.0 3.1 29 44
r 0.213296 1 2 tcp 1040 ------- 0 1.0 3.1 26 41
+ 0.213296 2 3 tcp 1040 ------- 0 1.0 3.1 26 41
- 0.213296 2 3 tcp 1040 ------- 0 1.0 3.1 26 41
- 0.213792 1 2 tcp 1040 ------- 0 1.0 3.1 30 45
r 0.214128 1 2 tcp 1040 ------- 0 1.0 3.1 27 42
+ 0.214128 2 3 tcp 1040 ------- 0 1.0 3.1 27 42
- 0.214128 2 3 tcp 1040 ------- 0 1.0 3.1 27 42
r 0.21496 1 2 tcp 1040 ------- 0 1.0 3.1 28 43
+ 0.21496 2 3 tcp 1040 ------- 0 1.0 3.1 28 43
- 0.21496 2 3 tcp 1040 ------- 0 1.0 3.1 28 43
r 0.214976 2 3 tcp 1040 ------- 0 1.0 3.1 15 30
+ 0.214976 3 2 ack 40 ------- 0 3.1 1.0 15 46
- 0.214976 3 2 ack 40 ------- 0 3.1 1.0 15 46
r 0.215792 1 2 tcp 1040 ------- 0 1.0 3.1 29 44
+ 0.215792 2 3 tcp 1040 ------- 0 1.0 3.1 29 44
- 0.215792 2 3 tcp 1040 ------- 0 1.0 3.1 29 44
r 0.215808 2 3 tcp 1040 ------- 0 1.0 3.1 16 31
+ 0.215808 3 2 ack 40 ------- 0 3.1 1.0 16 47
- 0.215808 3 2 ack 40 ------- 0 3.1 1.0 16 47
r 0.216624 1 2 tcp 1040 ------- 0 1.0 3.1 30 45
+ 0.216624 2 3 tcp 1040 ------- 0 1.0 3.1 30 45
- 0.216624 2 3 tcp 1040 ------- 0 1.0 3.1 30 45
r 0.21664 2 3 tcp 1040 ------- 0 1.0 3.1 17 32
+ 0.21664 3 2 ack 40 ------- 0 3.1 1.0 17 48
- 0.21664 3 2 ack 40 ------- 0 3.1 1.0 17 48
r 0.217472 2 3 tcp 1040 ------- 0 1.0 3.1 18 33
+ 0.217472 3 2 ack 40 ------- 0 3.1 1.0 18 49
- 0.217472 3 2 ack 40 ------- 0 3.1 1.0 18 49
r 0.218304 2 3 tcp 1040 ------- 0 1.0 3.1 19 34
+ 0.218304 3 2 ack 40 ------- 0 3.1 1.0 19 50
- 0.218304 3 2 ack 40 ------- 0 3.1 1.0 19 50
r 0.219136 2 3 tcp 1040 ------- 0 1.0 3.1 20 35
+ 0.219136 3 2 ack 40 ------- 0 3.1 1.0 20 51
- 0.219136 3 2 ack 40 ------- 0 3.1 1.0 20 51
r 0.219968 2 3 tcp 1040 ------- 0 1.0 3.1 21 36
+ 0.219968 3 2 ack 40 ------- 0 3.1 1.0 21 52
- 0.219968 3 2 ack 40 ------- 0 3.1 1.0 21 52
r 0.2208 2 3 tcp 1040 ------- 0 1.0 3.1 22 37
+ 0.2208 3 2 ack 40 ------- 0 3.1 1.0 22 53
- 0.2208 3 2 ack 40 ------- 0 3.1 1.0 22 53
r 0.221632 2 3 tcp 1040 ------- 0 1.0 3.1 23 38
+ 0.221632 3 2 ack 40 ------- 0 3.1 1.0 23 54
- 0.221632 3 2 ack 40 ------- 0 3.1 1.0 23 54
r 0.222464 2 3 tcp 1040 ------- 0 1.0 3.1 24 39
+ 0.222464 3 2 ack 40 ------- 0 3.1 1.0 24 55
- 0.222464 3 2 ack 40 ------- 0 3.1 1.0 24 55
r 0.223296 2 3 tcp 1040 ------- 0 1.0 3.1 25 40
+ 0.223296 3 2 ack 40 ------- 0 3.1 1.0 25 56
- 0.223296 3 2 ack 40 ------- 0 3.1 1.0 25 56
r 0.224128 2 3 tcp 1040 ------- 0 1.0 3.1 26 41
+ 0.224128 3 2 ack 40 ------- 0 3.1 1.0 26 57
- 0.224128 3 2 ack 40 ------- 0 3.1 1.0 26 57
r 0.22496 2 3 tcp 1040 ------- 0 1.0 3.1 27 42
+ 0.22496 3 2 ack 40 ------- 0 3.1 1.0 27 58
- 0.22496 3 2 ack 40 ------- 0 3.1 1.0 27 58
r 0.225008 3 2 ack 40 ------- 0 3.1 1.0 15 46
+ 0.225008 2 1 ack 40 ------- 0 3.1 1.0 15 46
- 0.225008 2 1 ack 40 ------- 0 3.1 1.0 15 46
r 0.225792 2 3 tcp 1040 ------- 0 1.0 3.1 28 43
+ 0.225792 3 2 ack 40 ------- 0 3.1 1.0 28 59
- 0.225792 3 2 ack 40 ------- 0 3.1 1.0 28 59
r 0.22584 3 2 ack 40 ------- 0 3.1 1.0 16 47
+ 0.22584 2 1 ack 40 ------- 0 3.1 1.0 16 47
- 0.22584 2 1 ack 40 ------- 0 3.1 1.0 16 47
r 0.226624 2 3 tcp 1040 ------- 0 1.0 3.1 29 44
+ 0.226624 3 2 ack 40 ------- 0 3.1 1.0 29 60
- 0.226624 3 2 ack 40 ------- 0 3.1 1.0 29 60
r 0.226672 3 2 ack 40 ------- 0 3.1 1.0 17 48
+ 0.226672 2 1 ack 40 ------- 0 3.1 1.0 17 48
- 0.226672 2 1 ack 40 ------- 0 3.1 1.0 17 48
r 0.22704 2 1 ack 40 ------- 0 3.1 1.0 15 46
+ 0.22704 1 2 tcp 1040 ------- 0 1.0 3.1 31 61
- 0.22704 1 2 tcp 1040 ------- 0 1.0 3.1 31 61
+ 0.22704 1 2 tcp 1040 ------- 0 1.0 3.1 32 62
r 0.227456 2 3 tcp 1040 ------- 0 1.0 3.1 30 45
+ 0.227456 3 2 ack 40 ------- 0 3.1 1.0 30 63
- 0.227456 3 2 ack 40 ------- 0 3.1 1.0 30 63
r 0.227504 3 2 ack 40 ------- 0 3.1 1.0 18 49
+ 0.227504 2 1 ack 40 ------- 0 3.1 1.0 18 49
- 0.227504 2 1 ack 40 ------- 0 3.1 1.0 18 49
r 0.227872 2 1 ack 40 ------- 0 3.1 1.0 16 47
+ 0.227872 1 2 tcp 1040 ------- 0 1.0 3.1 33 64
+ 0.227872 1 2 tcp 1040 ------- 0 1.0 3.1 34 65
- 0.227872 1 2 tcp 1040 ------- 0 1.0 3.1 32 62
r 0.228336 3 2 ack 40 ------- 0 3.1 1.0 19 50
+ 0.228336 2 1 ack 40 ------- 0 3.1 1.0 19 50
- 0.228336 2 1 ack 40 ------- 0 3.1 1.0 19 50
r 0.228704 2 1 ack 40 ------- 0 3.1 1.0 17 48
+ 0.228704 1 2 tcp 1040 ------- 0 1.0 3.1 35 66
+ 0.228704 1 2 tcp 1040 ------- 0 1.0 3.1 36 67
- 0.228704 1 2 tcp 1040 ------- 0 1.0 3.1 33 64
r 0.229168 3 2 ack 40 ------- 0 3.1 1.0 20 51
+ 0.229168 2 1 ack 40 ------- 0 3.1 1.0 20 51
- 0.229168 2 1 ack 40 ------- 0 3.1 1.0 20 51
r 0.229536 2 1 ack 40 ------- 0 3.1 1.0 18 49
+ 0.229536 1 2 tcp 1040 ------- 0 1.0 3.1 37 68
+ 0.229536 1 2 tcp 1040 ------- 0 1.0 3.1 38 69
- 0.229536 1 2 tcp 1040 ------- 0 1.0 3.1 34 65
r 0.229872 1 2 tcp 1040 ------- 0 1.0 3.1 31 61
+ 0.229872 2 3 tcp 1040 ------- 0 1.0 3.1 31 61
- 0.229872 2 3 tcp 1040 ------- 0 1.0 3.1 31 61
r 0.23 3 2 ack 40 ------- 0 3.1 1.0 21 52
+ 0.23 2 1 ack 40 ------- 0 3.1 1.0 21 52
- 0.23 2 1 ack 40 ------- 0 3.1 1.0 21 52
r 0.230368 2 1 ack 40 ------- 0 3.1 1.0 19 50
+ 0.230368 1 2 tcp 1040 ------- 0 1.0 3.1 39 70
- 0.230368 1 2 tcp 1040 ------- 0 1.0 3.1 35 66
r 0.230704 1 2 tcp 1040 ------- 0 1.0 3.1 32 62
+ 0.230704 2 3 tcp 1040 ------- 0 1.0 3.1 32 62
- 0.230704 2 3 tcp 1040 ------- 0 1.0 3.1 32 62
r 0.230832 3 2 ack 40 ------- 0 3.1 1.0 22 53
+ 0.230832 2 1 ack 40 ------- 0 3.1 1.0 22 53
- 0.230832 2 1 ack 40 ------- 0 3.1 1.0 22 53
r 0.2312 2 1 ack 40 ------- 0 3.1 1.0 20 51
+ 0.2312 1 2 tcp 1040 ------- 0 1.0 3.1 40 71
- 0.2312 1 2 tcp 1040 ------- 0 1.0 3.1 36 67
r 0.231536 1 2 tcp 1040 ------- 0 1.0 3.1 33 64
+ 0.231536 2 3 tcp 1040 ------- 0 1.0 3.1 33 64
- 0.231536 2 3 tcp 1040 ------- 0 1.0 3.1 33 64
r 0.231664 3 2 ack 40 ------- 0 3.1 1.0 23 54
+ 0.231664 2 1 ack 40 ------- 0 3.1 1.0 23 54
- 0.231664 2 1 ack 40 ------- 0 3.1 1.0 23 54
r 0.232032 2 1 ack 40 ------- 0 3.1 1.0 21 52
+ 0.232032 1 2 tcp 1040 ------- 0 1.0 3.1 41 72
- 0.232032 1 2 tcp 1040 ------- 0 1.0 3.1 37 68
r 0.232368 1 2 tcp 1040 ------- 0 1.0 3.1 34 65
+ 0.232368 2 3 tcp 1040 ------- 0 1.0 3.1 34 65
- 0.232368 2 3 tcp 1040 ------- 0 1.0 3.1 34 65
r 0.232496 3 2 ack 40 ------- 0 3.1 1.0 24 55
+ 0.232496 2 1 ack 40 ------- 0 3.1 1.0 24 55
- 0.232496 2 1 ack 40 ------- 0 3.1 1.0 24 55
r 0.232864 2 1 ack 40 ------- 0 3.1 1.0 22 53
+ 0.232864 1 2 tcp 1040 ------- 0 1.0 3.1 42 73
- 0.232864 1 2 tcp 1040 ------- 0 1.0 3.1 38 69
r 0.2332 1 2 tcp 1040 ------- 0 1.0 3.1 35 66
+ 0.2332 2 3 tcp 1040 ------- 0 1.0 3.1 35 66
- 0.2332 2 3 tcp 1040 ------- 0 1.0 3.1 35 66
r 0.233328 3 2 ack 40 ------- 0 3.1 1.0 25 56
+ 0.233328 2 1 ack 40 ------- 0 3.1 1.0 25 56
- 0.233328 2 1 ack 40 ------- 0 3.1 1.0 25 56
r 0.233696 2 1 ack 40 ------- 0 3.1 1.0 23 54
+ 0.233696 1 2 tcp 1040 ------- 0 1.0 3.1 43 74
- 0.233696 1 2 tcp 1040 ------- 0 1.0 3.1 39 70
r 0.234032 1 2 tcp 1040 ------- 0 1.0 3.1 36 67
+ 0.234032 2 3 tcp 1040 ------- 0 1.0 3.1 36 67
- 0.234032 2 3 tcp 1040 ------- 0 1.0 3.1 36 67
r 0.23416 3 2 ack 40 ------- 0 3.1 1.0 26 57
+ 0.23416 2 1 ack 40 ------- 0 3.1 1.0 26 57
- 0.23416 2 1 ack 40 ------- 0 3.1 1.0 26 57
r 0.234528 2 1 ack 40 ------- 0 3.1 1.0 24 55
+ 0.234528 1 2 tcp 1040 ------- 0 1.0 3.1 44 75
- 0.234528 1 2 tcp 1040 ------- 0 1.0 3.1 40 71
r 0.234864 1 2 tcp 1040 ------- 0 1.0 3.1 37 68
+ 0.234864 2 3 tcp 1040 ------- 0 1.0 3.1 37 68
- 0.234864 2 3 tcp 1040 ------- 0 1.0 3.1 37 68
r 0.234992 3 2 ack 40 ------- 0 3.1 1.0 27 58
+ 0.234992 2 1 ack 40 ------- 0 3.1 1.0 27 58
- 0.234992 2 1 ack 40 ------- 0 3.1 1.0 27 58
r 0.23536 2 1 ack 40 ------- 0 3.1 1.0 25 56
+ 0.23536 1 2 tcp 1040 ------- 0 1.0 3.1 45 76
- 0.23536 1 2 tcp 1040 ------- 0 1.0 3.1 41 72
r 0.235696 1 2 tcp 1040 ------- 0 1.0 3.1 38 69
+ 0.235696 2 3 tcp 1040 ------- 0 1.0 3.1 38 69
- 0.235696 2 3 tcp 1040 ------- 0 1.0 3.1 38 69
r 0.235824 3 2 ack 40 ------- 0 3.1 1.0 28 59
+ 0.235824 2 1 ack 40 ------- 0 3.1 1.0 28 59
- 0.235824 2 1 ack 40 ------- 0 3.1 1.0 28 59
r 0.236192 2 1 ack 40 ------- 0 3.1 1.0 26 57
+ 0.236192 1 2 tcp 1040 ------- 0 1.0 3.1 46 77
- 0.236192 1 2 tcp 1040 ------- 0 1.0 3.1 42 73
r 0.236528 1 2 tcp 1040 ------- 0 1.0 3.1 39 70
+ 0.236528 2 3 tcp 1040 ------- 0 1.0 3.1 39 70
- 0.236528 2 3 tcp 1040 ------- 0 1.0 3.1 39 70
r 0.236656 3 2 ack 40 ------- 0 3.1 1.0 29 60
+ 0.236656 2 1 ack 40 ------- 0 3.1 1.0 29 60
- 0.236656 2 1 ack 40 ------- 0 3.1 1.0 29 60
r 0.237024 2 1 ack 40 ------- 0 3.1 1.0 27 58
+ 0.237024 1 2 tcp 1040 ------- 0 1.0 3.1 47 78
- 0.237024 1 2 tcp 1040 ------- 0 1.0 3.1 43 74
r 0.23736 1 2 tcp 1040 ------- 0 1.0 3.1 40 71
+ 0.23736 2 3 tcp 1040 ------- 0 1.0 3.1 40 71
- 0.23736 2 3 tcp 1040 ------- 0 1.0 3.1 40 71
r 0.237488 3 2 ack 40 ------- 0 3.1 1.0 30 63
+ 0.237488 2 1 ack 40 ------- 0 3.1 1.0 30 63
- 0.237488 2 1 ack 40 ------- 0 3.1 1.0 30 63
r 0.237856 2 1 ack 40 ------- 0 3.1 1.0 28 59
+ 0.237856 1 2 tcp 1040 ------- 0 1.0 3.1 48 79
- 0.237856 1 2 tcp 1040 ------- 0 1.0 3.1 44 75
r 0.238192 1 2 tcp 1040 ------- 0 1.0 3.1 41 72
+ 0.238192 2 3 tcp 1040 ------- 0 1.0 3.1 41 72
- 0.238192 2 3 tcp 1040 ------- 0 1.0 3.1 41 72
r 0.238688 2 1 ack 40 ------- 0 3.1 1.0 29 60
+ 0.238688 1 2 tcp 1040 ------- 0 1.0 3.1 49 80
- 0.238688 1 2 tcp 1040 ------- 0 1.0 3.1 45 76
r 0.239024 1 2 tcp 1040 ------- 0 1.0 3.1 42 73
+ 0.239024 2 3 tcp 1040 ------- 0 1.0 3.1 42 73
- 0.239024 2 3 tcp 1040 ------- 0 1.0 3.1 42 73
r 0.23952 2 1 ack 40 ------- 0 3.1 1.0 30 63
+ 0.23952 1 2 tcp 1040 ------- 0 1.0 3.1 50 81
- 0.23952 1 2 tcp 1040 ------- 0 1.0 3.1 46 77
r 0.239856 1 2 tcp 1040 ------- 0 1.0 3.1 43 74
+ 0.239856 2 3 tcp 1040 ------- 0 1.0 3.1 43 74
- 0.239856 2 3 tcp 1040 ------- 0 1.0 3.1 43 74
- 0.240352 1 2 tcp 1040 ------- 0 1.0 3.1 47 78
r 0.240688 1 2 tcp 1040 ------- 0 1.0 3.1 44 75
+ 0.240688 2 3 tcp 1040 ------- 0 1.0 3.1 44 75
- 0.240688 2 3 tcp 1040 ------- 0 1.0 3.1 44 75
r 0.240704 2 3 tcp 1040 ------- 0 1.0 3.1 31 61
+ 0.240704 3 2 ack 40 ------- 0 3.1 1.0 31 82
- 0.240704 3 2 ack 40 ------- 0 3.1 1.0 31 82
- 0.241184 1 2 tcp 1040 ------- 0 1.0 3.1 48 79
r 0.24152 1 2 tcp 1040 ------- 0 1.0 3.1 45 76
+ 0.24152 2 3 tcp 1040 ------- 0 1.0 3.1 45 76
- 0.24152 2 3 tcp 1040 ------- 0 1.0 3.1 45 76
r 0.241536 2 3 tcp 1040 ------- 0 1.0 3.1 32 62
+ 0.241536 3 2 ack 40 ------- 0 3.1 1.0 32 83
- 0.241536 3 2 ack 40 ------- 0 3.1 1.0 32 83
- 0.242016 1 2 tcp 1040 ------- 0 1.0 3.1 49 80
r 0.242352 1 2 tcp 1040 ------- 0 1.0 3.1 46 77
+ 0.242352 2 3 tcp 1040 ------- 0 1.0 3.1 46 77
- 0.242352 2 3 tcp 1040 ------- 0 1.0 3.1 46 77
r 0.242368 2 3 tcp 1040 ------- 0 1.0 3.1 33 64
+ 0.242368 3 2 ack 40 ------- 0 3.1 1.0 33 84
- 0.242368 3 2 ack 40 ------- 0 3.1 1.0 33 84
- 0.242848 1 2 tcp 1040 ------- 0 1.0 3.1 50 81
r 0.243184 1 2 tcp 1040 ------- 0 1.0 3.1 47 78
+ 0.243184 2 3 tcp 1040 ------- 0 1.0 3.1 47 78
- 0.243184 2 3 tcp 1040 ------- 0 1.0 3.1 47 78
r 0.2432 2 3 tcp 1040 ------- 0 1.0 3.1 34 65
+ 0.2432 3 2 ack 40 ------- 0 3.1 1.0 34 85
- 0.2432 3 2 ack 40 ------- 0 3.1 1.0 34 85
r 0.244016 1 2 tcp 1040 ------- 0 1.0 3.1 48 79
+ 0.244016 2 3 tcp 1040 ------- 0 1.0 3.1 48 79
- 0.244016 2 3 tcp 1040 ------- 0 1.0 3.1 48 79
r 0.244032 2 3 tcp 1040 ------- 0 1.0 3.1 35 66
+ 0.244032 3 2 ack 40 ------- 0 3.1 1.0 35 86
- 0.244032 3 2 ack 40 ------- 0 3.1 1.0 35 86
r 0.244848 1 2 tcp 1040 ------- 0 1.0 3.1 49 80
+ 0.244848 2 3 tcp 1040 ------- 0 1.0 3.1 49 80
- 0.244848 2 3 tcp 1040 ------- 0 1.0 3.1 49 80
r 0.244864 2 3 tcp 1040 ------- 0 1.0 3.1 36 67
+ 0.244864 3 2 ack 40 ------- 0 3.1 1.0 36 87
- 0.244864 3 2 ack 40 ------- 0 3.1 1.0 36 87
r 0.24568 1 2 tcp 1040 ------- 0 1.0 3.1 50 81
+ 0.24568 2 3 tcp 1040 ------- 0 1.0 3.1 50 81
- 0.24568 2 3 tcp 1040 ------- 0 1.0 3.1 50 81
r 0.245696 2 3 tcp 1040 ------- 0 1.0 3.1 37 68
+ 0.245696 3 2 ack 40 ------- 0 3.1 1.0 37 88
- 0.245696 3 2 ack 40 ------- 0 3.1 1.0 37 88
r 0.246528 2 3 tcp 1040 ------- 0 1.0 3.1 38 69
+ 0.246528 3 2 ack 40 ------- 0 3.1 1.0 38 89
- 0.246528 3 2 ack 40 ------- 0 3.1 1.0 38 89
r 0.24736 2 3 tcp 1040 ------- 0 1.0 3.1 39 70
+ 0.24736 3 2 ack 40 ------- 0 3.1 1.0 39 90
- 0.24736 3 2 ack 40 ------- 0 3.1 1.0 39 90
r 0.248192 2 3 tcp 1040 ------- 0 1.0 3.1 40 71
+ 0.248192 3 2 ack 40 ------- 0 3.1 1.0 40 91
- 0.248192 3 2 ack 40 ------- 0 3.1 1.0 40 91
r 0.249024 2 3 tcp 1040 ------- 0 1.0 3.1 41 72
+ 0.249024 3 2 ack 40 ------- 0 3.1 1.0 41 92
- 0.249024 3 2 ack 40 ------- 0 3.1 1.0 41 92
r 0.249856 2 3 tcp 1040 ------- 0 1.0 3.1 42 73
+ 0.249856 3 2 ack 40 ------- 0 3.1 1.0 42 93
- 0.249856 3 2 ack 40 ------- 0 3.1 1.0 42 93
r 0.250688 2 3 tcp 1040 ------- 0 1.0 3.1 43 74
+ 0.250688 3 2 ack 40 ------- 0 3.1 1.0 43 94
- 0.250688 3 2 ack 40 ------- 0 3.1 1.0 43 94
r 0.250736 3 2 ack 40 ------- 0 3.1 1.0 31 82
+ 0.250736 2 1 ack 40 ------- 0 3.1 1.0 31 82
- 0.250736 2 1 ack 40 ------- 0 3.1 1.0 31 82
r 0.25152 2 3 tcp 1040 ------- 0 1.0 3.1 44 75
+ 0.25152 3 2 ack 40 ------- 0 3.1 1.0 44 95
- 0.25152 3 2 ack 40 ------- 0 3.1 1.0 44 95
r 0.251568 3 2 ack 40 ------- 0 3.1 1.0 32 83
+ 0.251568 2 1 ack 40 ------- 0 3.1 1.0 32 83
- 0.251568 2 1 ack 40 ------- 0 3.1 1.0 32 83
r 0.252352 2 3 tcp 1040 ------- 0 1.0 3.1 45 76
+ 0.252352 3 2 ack 40 ------- 0 3.1 1.0 45 96
- 0.252352 3 2 ack 40 ------- 0 3.1 1.0 45 96
r 0.2524 3 2 ack 40 ------- 0 3.1 1.0 33 84
+ 0.2524 2 1 ack 40 ------- 0 3.1 1.0 33 84
- 0.2524 2 1 ack 40 ------- 0 3.1 1.0 33 84
r 0.252768 2 1 ack 40 ------- 0 3.1 1.0 31 82
+ 0.252768 1 2 tcp 1040 ------- 0 1.0 3.1 51 97
- 0.252768 1 2 tcp 1040 ------- 0 1.0 3.1 51 97
r 0.253184 2 3 tcp 1040 ------- 0 1.0 3.1 46 77
+ 0.253184 3 2 ack 40 ------- 0 3.1 1.0 46 98
- 0.253184 3 2 ack 40 ------- 0 3.1 1.0 46 98
r 0.253232 3 2 ack 40 ------- 0 3.1 1.0 34 85
+ 0.253232 2 1 ack 40 ------- 0 3.1 1.0 34 85
- 0.253232 2 1 ack 40 ------- 0 3.1 1.0 34 85
r 0.2536 2 1 ack 40 ------- 0 3.1 1.0 32 83
+ 0.2536 1 2 tcp 1040 ------- 0 1.0 3.1 52 99
- 0.2536 1 2 tcp 1040 ------- 0 1.0 3.1 52 99
r 0.254016 2 3 tcp 1040 ------- 0 1.0 3.1 47 78
+ 0.254016 3 2 ack 40 ------- 0 3.1 1.0 47 100
- 0.254016 3 2 ack 40 ------- 0 3.1 1.0 47 100
r 0.254064 3 2 ack 40 ------- 0 3.1 1.0 35 86
+ 0.254064 2 1 ack 40 ------- 0 3.1 1.0 35 86
- 0.254064 2 1 ack 40 ------- 0 3.1 1.0 35 86
r 0.254432 2 1 ack 40 ------- 0 3.1 1.0 33 84
+ 0.254432 1 2 tcp 1040 ------- 0 1.0 3.1 53 101
- 0.254432 1 2 tcp 1040 ------- 0 1.0 3.1 53 101
r 0.254848 2 3 tcp 1040 ------- 0 1.0 3.1 48 79
+ 0.254848 3 2 ack 40 ------- 0 3.1 1.0 48 102
- 0.254848 3 2 ack 40 ------- 0 3.1 1.0 48 102
r 0.254896 3 2 ack 40 ------- 0 3.1 1.0 36 87
+ 0.254896 2 1 ack 40 ------- 0 3.1 1.0 36 87
- 0.254896 2 1 ack 40 ------- 0 3.1 1.0 36 87
r 0.255264 2 1 ack 40 ------- 0 3.1 1.0 34 85
+ 0.255264 1 2 tcp 1040 ------- 0 1.0 3.1 54 103
- 0.255264 1 2 tcp 1040 ------- 0 1.0 3.1 54 103
r 0.2556 1 2 tcp 1040 ------- 0 1.0 3.1 51 97
+ 0.2556 2 3 tcp 1040 ------- 0 1.0 3.1 51 97
- 0.2556 2 3 tcp 1040 ------- 0 1.0 3.1 51 97
r 0.25568 2 3 tcp 1040 ------- 0 1.0 3.1 49 80
+ 0.25568 3 2 ack 40 ------- 0 3.1 1.0 49 104
- 0.25568 3 2 ack 40 ------- 0 3.1 1.0 49 104
r 0.255728 3 2 ack 40 ------- 0 3.1 1.0 37 88
+ 0.255728 2 1 ack 40 ------- 0 3.1 1.0 37 88
- 0.255728 2 1 ack 40 ------- 0 3.1 1.0 37 88
r 0.256096 2 1 ack 40 ------- 0 3.1 1.0 35 86
+ 0.256096 1 2 tcp 1040 ------- 0 1.0 3.1 55 105
- 0.256096 1 2 tcp 1040 ------- 0 1.0 3.1 55 105
r 0.256432 1 2 tcp 1040 ------- 0 1.0 3.1 52 99
+ 0.256432 2 3 tcp 1040 ------- 0 1.0 3.1 52 99
- 0.256432 2 3 tcp 1040 ------- 0 1.0 3.1 52 99
r 0.256512 2 3 tcp 1040 ------- 0 1.0 3.1 50 81
+ 0.256512 3 2 ack 40 ------- 0 3.1 1.0 50 106
- 0.256512 3 2 ack 40 ------- 0 3.1 1.0 50 106
r 0.25656 3 2 ack 40 ------- 0 3.1 1.0 38 89
+ 0.25656 2 1 ack 40 ------- 0 3.1 1.0 38 89
- 0.25656 2 1 ack 40 ------- 0 3.1 1.0 38 89
r 0.256928 2 1 ack 40 ------- 0 3.1 1.0 36 87
+ 0.256928 1 2 tcp 1040 ------- 0 1.0 3.1 56 107
- 0.256928 1 2 tcp 1040 ------- 0 1.0 3.1 56 107
r 0.257264 1 2 tcp 1040 ------- 0 1.0 3.1 53 101
+ 0.257264 2 3 tcp 1040 ------- 0 1.0 3.1 53 101
- 0.257264 2 3 tcp 1040 ------- 0 1.0 3.1 53 101
r 0.257392 3 2 ack 40 ------- 0 3.1 1.0 39 90
+ 0.257392 2 1 ack 40 ------- 0 3.1 1.0 39 90
- 0.257392 2 1 ack 40 ------- 0 3.1 1.0 39 90
r 0.25776 2 1 ack 40 ------- 0 3.1 1.0 37 88
+ 0.25776 1 2 tcp 1040 ------- 0 1.0 3.1 57 108
- 0.25776 1 2 tcp 1040 ------- 0 1.0 3.1 57 108
r 0.258096 1 2 tcp 1040 ------- 0 1.0 3.1 54 103
+ 0.258096 2 3 tcp 1040 ------- 0 1.0 3.1 54 103
- 0.258096 2 3 tcp 1040 ------- 0 1.0 3.1 54 103
r 0.258224 3 2 ack 40 ------- 0 3.1 1.0 40 91
+ 0.258224 2 1 ack 40 ------- 0 3.1 1.0 40 91
- 0.258224 2 1 ack 40 ------- 0 3.1 1.0 40 91
r 0.258592 2 1 ack 40 ------- 0 3.1 1.0 38 89
+ 0.258592 1 2 tcp 1040 ------- 0 1.0 3.1 58 109
- 0.258592 1 2 tcp 1040 ------- 0 1.0 3.1 58 109
r 0.258928 1 2 tcp 1040 ------- 0 1.0 3.1 55 105
+ 0.258928 2 3 tcp 1040 ------- 0 1.0 3.1 55 105
- 0.258928 2 3 tcp 1040 ------- 0 1.0 3.1 55 105
r 0.259056 3 2 ack 40 ------- 0 3.1 1.0 41 92
+ 0.259056 2 1 ack 40 ------- 0 3.1 1.0 41 92
- 0.259056 2 1 ack 40 ------- 0 3.1 1.0 41 92
r 0.259424 2 1 ack 40 ------- 0 3.1 1.0 39 90
+ 0.259424 1 2 tcp 1040 ------- 0 1.0 3.1 59 110
- 0.259424 1 2 tcp 1040 ------- 0 1.0 3.1 59 110
r 0.25976 1 2 tcp 1040 ------- 0 1.0 3.1 56 107
+ 0.25976 2 3 tcp 1040 ------- 0 1.0 3.1 56 107
- 0.25976 2 3 tcp 1040 ------- 0 1.0 3.1 56 107
r 0.259888 3 2 ack 40 ------- 0 3.1 1.0 42 93
+ 0.259888 2 1 ack 40 ------- 0 3.1 1.0 42 93
- 0.259888 2 1 ack 40 ------- 0 3.1 1.0 42 93
r 0.260256 2 1 ack 40 ------- 0 3.1 1.0 40 91
+ 0.260256 1 2 tcp 1040 ------- 0 1.0 3.1 60 111
- 0.260256 1 2 tcp 1040 ------- 0 1.0 3.1 60 111
r 0.260592 1 2 tcp 1040 ------- 0 1.0 3.1 57 108
+ 0.260592 2 3 tcp 1040 ------- 0 1.0 3.1 57 108
- 0.260592 2 3 tcp 1040 ------- 0 1.0 3.1 57 108
r 0.26072 3 2 ack 40 ------- 0 3.1 1.0 43 94
+ 0.26072 2 1 ack 40 ------- 0 3.1 1.0 43 94
- 0.26072 2 1 ack 40 ------- 0 3.1 1.0 43 94
r 0.261088 2 1 ack 40 ------- 0 3.1 1.0 41 92
+ 0.261088 1 2 tcp 1040 ------- 0 1.0 3.1 61 112
- 0.261088 1 2 tcp 1040 ------- 0 1.0 3.1 61 112
r 0.261424 1 2 tcp 1040 ------- 0 1.0 3.1 58 109
+ 0.261424 2 3 tcp 1040 ------- 0 1.0 3.1 58 109
- 0.261424 2 3 tcp 1040 ------- 0 1.0 3.1 58 109
r 0.261552 3 2 ack 40 ------- 0 3.1 1.0 44 95
+ 0.261552 2 1 ack 40 ------- 0 3.1 1.0 44 95
- 0.261552 2 1 ack 40 ------- 0 3.1 1.0 44 95
r 0.26192 2 1 ack 40 ------- 0 3.1 1.0 42 93
+ 0.26192 1 2 tcp 1040 ------- 0 1.0 3.1 62 113
- 0.26192 1 2 tcp 1040 ------- 0 1.0 3.1 62 113
r 0.262256 1 2 tcp 1040 ------- 0 1.0 3.1 59 110
+ 0.262256 2 3 tcp 1040 ------- 0 1.0 3.1 59 110
- 0.262256 2 3 tcp 1040 ------- 0 1.0 3.1 59 110
r 0.262384 3 2 ack 40 ------- 0 3.1 1.0 45 96
+ 0.262384 2 1 ack 40 ------- 0 3.1 1.0 45 96
- 0.262384 2 1 ack 40 ------- 0 3.1 1.0 45 96
r 0.262752 2 1 ack 40 ------- 0 3.1 1.0 43 94
+ 0.262752 1 2 tcp 1040 ------- 0 1.0 3.1 63 114
- 0.262752 1 2 tcp 1040 ------- 0 1.0 3.1 63 114